Variables = x, y, u, v, p

Zone, I=800, F=POINT
          20            0  3.26216e-18 -3.57213e-26   0.00180924 
          20     0.000234  0.000165005  6.18805e-10   0.00180925 
          20     0.000939  0.000662021  9.97767e-09   0.00180926 
          20     0.002113   0.00148929  5.04718e-08   0.00180929 
          20     0.003759   0.00264835  1.59435e-07   0.00180933 
          20     0.005872   0.00413488  3.88081e-07   0.00180937 
          20     0.008457   0.00595135  8.02481e-07   0.00180943 
          20      0.01151   0.00809367  1.48099e-06    0.0018095 
          20     0.015036    0.0105639  2.51658e-06   0.00180957 
          20     0.019031    0.0133573  4.01198e-06   0.00180966 
          20     0.023493    0.0164708  6.08052e-06   0.00180975 
          20     0.028429    0.0199067  8.85002e-06   0.00180985 
          20     0.033831    0.0236572  1.24489e-05   0.00180996 
          20     0.039706    0.0277242  1.70218e-05   0.00181008 
          20     0.046047    0.0320999  2.27087e-05    0.0018102 
          20     0.052863     0.036787  2.96674e-05   0.00181033 
          20      0.06015    0.0417791   3.8046e-05   0.00181046 
          20       0.0679    0.0470666  4.79847e-05    0.0018106 
          20     0.076126    0.0526539  5.96477e-05   0.00181074 
          20     0.084816    0.0585279    7.316e-05   0.00181089 
          20     0.093982    0.0646914  8.86719e-05   0.00181103 
          20     0.103611    0.0711297  0.000106283   0.00181118 
          20     0.113718    0.0778464  0.000126125   0.00181134 
          20     0.124286    0.0848231  0.000148249   0.00181149 
          20     0.135333    0.0920642  0.000172751   0.00181165 
          20      0.14685    0.0995554  0.000199642    0.0018118 
          20     0.158827     0.107281  0.000228896   0.00181196 
          20     0.171284     0.115245  0.000260518   0.00181213 
          20     0.184201     0.123425  0.000294372   0.00181229 
          20     0.197599     0.131822  0.000330377   0.00181246 
          20     0.211455     0.140411  0.000368286   0.00181264 
          20     0.225792     0.149196  0.000407925   0.00181282 
          20       0.2406     0.158159  0.000448975   0.00181301 
          20     0.255865     0.167279  0.000491036   0.00181321 
          20     0.271613     0.176562  0.000533791   0.00181343 
          20     0.287818     0.185982  0.000576727   0.00181366 
          20     0.304506     0.195546  0.000619438   0.00181391 
          20      0.32165     0.205229  0.000661352   0.00181418 
          20     0.339278     0.215043   0.00070203   0.00181447 
          20     0.357377     0.224977  0.000740945   0.00181478 
          20      0.37593      0.23502  0.000777603   0.00181512 
          20     0.394968     0.245192  0.000811667   0.00181548 
          20     0.414461     0.255482  0.000842765   0.00181587 
          20      0.43444     0.265915  0.000870732   0.00181629 
          20     0.454872     0.276483  0.000895424   0.00181673 
          20     0.475791     0.287219   0.00091691    0.0018172 
          20     0.497163     0.298118  0.000935311   0.00181769 
          20     0.519021     0.309214  0.000950934    0.0018182 
          20      0.54135     0.320515   0.00096415   0.00181873 
          20     0.564131     0.332026  0.000975421   0.00181927 
          20       0.5874     0.343779  0.000985287   0.00181983 
          20     0.611121     0.355766  0.000994277   0.00182039 
          20      0.63533     0.368012   0.00100293   0.00182096 
          20      0.65999     0.380502   0.00101173   0.00182153 
          20     0.685139     0.393254   0.00102107    0.0018221 
          20     0.710759     0.406256   0.00103129   0.00182266 
          20     0.736828     0.419487   0.00104264   0.00182321 
          20     0.763387     0.432959   0.00105527   0.00182374 
          20     0.790396     0.446636   0.00106927   0.00182426 
          20     0.817896     0.460523   0.00108466   0.00182475 
          20     0.845843     0.474582   0.00110139   0.00182522 
          20     0.874283     0.488815   0.00111943   0.00182565 
          20      0.90317     0.503181   0.00113866   0.00182605 
          20     0.932551     0.517683   0.00115901    0.0018264 
          20     0.962401     0.532287   0.00118036   0.00182671 
          20     0.992697     0.546964   0.00120259   0.00182696 
          20      1.02349     0.561714   0.00122563   0.00182715 
          20      1.05472     0.576493   0.00124936   0.00182727 
          20      1.08645     0.591305   0.00127372   0.00182732 
          20      1.11863     0.606105   0.00129858   0.00182729 
          20       1.1513     0.620894   0.00132392   0.00182717 
          20      1.18444     0.635639   0.00134963   0.00182696 
          20      1.21802     0.650308   0.00137563   0.00182664 
          20      1.25211     0.664901    0.0014019   0.00182621 
          20      1.28663     0.679372   0.00142831   0.00182566 
          20      1.32165     0.693723   0.00145486   0.00182498 
          20      1.35712     0.707908   0.00148143   0.00182417 
          20      1.39308     0.721927     0.001508   0.00182322 
          20      1.42951     0.735745   0.00153447   0.00182211 
          20      1.46638     0.749329   0.00156076   0.00182084 
          20      1.50375     0.762678   0.00158684   0.00181941 
          20      1.54156      0.77575   0.00161258    0.0018178 
          20      1.57987     0.788541   0.00163796   0.00181601 
          20      1.61863     0.801013   0.00166286   0.00181403 
          20      1.65788     0.813165   0.00168723   0.00181186 
          20      1.69757     0.824957   0.00171096   0.00180949 
          20      1.73776     0.836392   0.00173402    0.0018069 
          20      1.77842     0.847442   0.00175631   0.00180411 
          20      1.81952     0.858085   0.00177773   0.00180109 
          20      1.86113     0.868325   0.00179826   0.00179786 
          20      1.90316     0.878132   0.00181779    0.0017944 
          20      1.94571     0.887514   0.00183629   0.00179071 
          20      1.98869     0.896448   0.00185368    0.0017868 
          20      2.03217     0.904943   0.00186992   0.00178264 
          20      2.07612     0.912987   0.00188497   0.00177826 
          20      2.12051     0.920575   0.00189877   0.00177364 
          20       2.1654     0.927719   0.00191132   0.00176879 
          20      2.21073     0.934412   0.00192256    0.0017637 
          20      2.25656     0.940669   0.00193251   0.00175838 
          20      2.30283     0.946489   0.00194113   0.00175283 
          20       2.3496      0.95189   0.00194845   0.00174705 
          20      2.39685     0.956878   0.00195446   0.00174104 
          20      2.44452     0.961465   0.00195918   0.00173482 
          20      2.49271      0.96567   0.00196263   0.00172837 
          20      2.54132     0.969505   0.00196485   0.00172171 
          20      2.59044     0.972993   0.00196589   0.00171483 
          20         2.64     0.976145   0.00196577   0.00170776 
          20      2.69006     0.978987   0.00196454   0.00170047 
          20      2.74056     0.981533   0.00196228     0.001693 
          20      2.79156     0.983807   0.00195903   0.00168533 
          20      2.84304     0.985827   0.00195486   0.00167747 
          20      2.89494     0.987612   0.00194984   0.00166944 
          20      2.94735     0.989182   0.00194402   0.00166122 
          20       3.0002     0.990557   0.00193749   0.00165285 
          20      3.05355     0.991754    0.0019303    0.0016443 
          20      3.10733     0.992791   0.00192253    0.0016356 
          20      3.16163     0.993686   0.00191423   0.00162674 
          20      3.21639     0.994453   0.00190548   0.00161773 
          20      3.27158     0.995106   0.00189634   0.00160859 
          20      3.32729     0.995661   0.00188686    0.0015993 
          20      3.38342      0.99613    0.0018771   0.00158989 
          20      3.44007     0.996523   0.00186711   0.00158034 
          20      3.49714     0.996852   0.00185694   0.00157068 
          20      3.55472     0.997125   0.00184663   0.00156089 
          20      3.61273     0.997351   0.00183623     0.001551 
          20      3.67125     0.997538   0.00182576   0.00154099 
          20      3.73025     0.997691   0.00181526   0.00153088 
          20      3.78967     0.997816   0.00180477   0.00152069 
          20      3.84961     0.997919    0.0017943   0.00151039 
          20      3.90996     0.998002    0.0017839   0.00150001 
          20      3.97084      0.99807   0.00177355   0.00148954 
          20      4.03214     0.998126   0.00176329   0.00147901 
          20      4.09395     0.998172   0.00175313   0.00146839 
          20      4.15624      0.99821   0.00174309    0.0014577 
          20      4.21895     0.998241   0.00173316   0.00144695 
          20      4.28217     0.998268    0.0017234   0.00143614 
          20      4.34582     0.998291   0.00171376   0.00142528 
          20      4.40998     0.998311   0.00170425   0.00141437 
          20      4.47457     0.998329   0.00169491   0.00140341 
          20      4.53968     0.998345   0.00168571   0.00139241 
          20      4.60525      0.99836   0.00167668   0.00138137 
          20      4.67125     0.998374   0.00166782    0.0013703 
          20      4.73777     0.998387    0.0016591    0.0013592 
          20       4.8047     0.998399   0.00165055   0.00134808 
          20      4.87216     0.998412   0.00164216   0.00133693 
          20      4.94003     0.998424   0.00163394   0.00132578 
          20      5.00843     0.998436   0.00162588    0.0013146 
          20      5.07724     0.998447   0.00161799   0.00130343 
          20      5.14658     0.998459   0.00161026   0.00129224 
          20      5.21639     0.998471   0.00160269   0.00128105 
          20      5.28661     0.998482   0.00159528   0.00126987 
          20      5.35736     0.998494   0.00158802   0.00125869 
          20      5.42852     0.998505   0.00158093   0.00124752 
          20      5.50021     0.998517     0.001574   0.00123637 
          20      5.57231     0.998528   0.00156722   0.00122525 
          20      5.64493      0.99854   0.00156061   0.00121413 
          20      5.71803     0.998551   0.00155415   0.00120304 
          20      5.79154     0.998562   0.00154784   0.00119199 
          20      5.86558     0.998574   0.00154167   0.00118094 
          20      5.94003     0.998585   0.00153566   0.00116995 
          20      6.01501     0.998596   0.00152979   0.00115898 
          20       6.0904     0.998607   0.00152407   0.00114807 
          20      6.16632     0.998619    0.0015185   0.00113718 
          20      6.24271      0.99863   0.00151306   0.00112633 
          20       6.3195     0.998641   0.00150777   0.00111554 
          20      6.39683     0.998652   0.00150262   0.00110478 
          20      6.47457     0.998663    0.0014976   0.00109408 
          20      6.55284     0.998674   0.00149271   0.00108343 
          20      6.63152     0.998685   0.00148795   0.00107284 
          20      6.71073     0.998696   0.00148332    0.0010623 
          20      6.79034     0.998706   0.00147882   0.00105182 
          20      6.87049     0.998717   0.00147444    0.0010414 
          20      6.95111     0.998728   0.00147019   0.00103104 
          20      7.03214     0.998738   0.00146606   0.00102074 
          20       7.1137     0.998749   0.00146204   0.00101051 
          20      7.19566     0.998759   0.00145814   0.00100035 
          20      7.27816      0.99877   0.00145436  0.000990251 
          20      7.36106      0.99878    0.0014507  0.000980217 
          20      7.44451      0.99879   0.00144712  0.000970258 
          20      7.52842     0.998801   0.00144366  0.000960361 
          20      7.61273     0.998811   0.00144031  0.000950542 
          20      7.69758     0.998821   0.00143706  0.000940787 
          20      7.78283     0.998831   0.00143392  0.000931114 
          20      7.86862     0.998841   0.00143087  0.000921508 
          20      7.95481     0.998851   0.00142791  0.000911985 
          20      8.04155      0.99886   0.00142505  0.000902531 
          20      8.12868      0.99887   0.00142229   0.00089316 
          20      8.21635      0.99888    0.0014196  0.000883854 
          20      8.30449     0.998889   0.00141703  0.000874629 
          20      8.39303     0.998899   0.00141453  0.000865485 
          20      8.48211     0.998908    0.0014121  0.000856411 
          20      8.57159     0.998918   0.00140977  0.000847423 
          20      8.66161     0.998927   0.00140751  0.000838506 
          20      8.75203     0.998936   0.00140534  0.000829674 
          20      8.84299     0.998945   0.00140324  0.000820913 
          20      8.93443     0.998954   0.00140121  0.000812228 
          20      9.02626     0.998963   0.00139925  0.000803628 
          20      9.11863     0.998972   0.00139736  0.000795099 
          20      9.21139     0.998981   0.00139554  0.000786656 
          20      9.30471     0.998989    0.0013938  0.000778287 
          20      9.39841     0.998998   0.00139213  0.000770005 
          20      9.49267     0.999006   0.00139052  0.000761796 
          20      9.58739     0.999015   0.00138896  0.000753664 
          20      9.68251     0.999023   0.00138747  0.000745616 
          20      9.77817     0.999032   0.00138605  0.000737636 
          20      9.87422      0.99904   0.00138465  0.000729747 
          20      9.97083     0.999048   0.00138327  0.000721926 
          20      10.0678     0.999056   0.00138204  0.000714182 
          20      10.1654     0.999064   0.00138083  0.000706511 
          20      10.2633     0.999072   0.00137968   0.00069893 
          20      10.3618      0.99908   0.00137859  0.000691419 
          20      10.4607     0.999088   0.00137753  0.000683979 
          20      10.5601     0.999096    0.0013765  0.000676614 
          20        10.66     0.999103    0.0013755  0.000669313 
          20      10.7603     0.999111   0.00137457  0.000662096 
          20      10.8611     0.999118    0.0013737  0.000654951 
          20      10.9623     0.999126   0.00137288  0.000647884 
          20      11.0641     0.999133   0.00137209  0.000640885 
          20      11.1663     0.999141   0.00137135  0.000633958 
          20       11.269     0.999148   0.00137064  0.000627111 
          20      11.3721     0.999155   0.00136996   0.00062033 
          20      11.4757     0.999162   0.00136932  0.000613628 
          20      11.5798     0.999169    0.0013687  0.000606991 
          20      11.6844     0.999176   0.00136811  0.000600429 
          20      11.7894     0.999183   0.00136757   0.00059393 
          20       11.895      0.99919   0.00136706  0.000587498 
          20      12.0009     0.999196    0.0013666  0.000581138 
          20      12.1073     0.999203   0.00136617  0.000574838 
          20      12.2142      0.99921   0.00136576  0.000568609 
          20      12.3216     0.999216   0.00136537  0.000562442 
          20      12.4294     0.999223   0.00136504  0.000556347 
          20      12.5378     0.999229    0.0013647  0.000550315 
          20      12.6465     0.999236   0.00136441  0.000544352 
          20      12.7558     0.999242   0.00136415  0.000538448 
          20      12.8656     0.999248   0.00136391  0.000532608 
          20      12.9757     0.999254   0.00136367  0.000526837 
          20      13.0864      0.99926   0.00136346  0.000521125 
          20      13.1975     0.999266   0.00136327   0.00051548 
          20      13.3092     0.999272   0.00136312  0.000509893 
          20      13.4212     0.999278   0.00136298  0.000504369 
          20      13.5338     0.999284   0.00136288  0.000498896 
          20      13.6468      0.99929   0.00136282  0.000493472 
          20      13.7603     0.999296   0.00136272  0.000488136 
          20      13.8743     0.999301   0.00136266  0.000482849 
          20      13.9886     0.999307   0.00136263  0.000477618 
          20      14.1036     0.999313   0.00136262  0.000472438 
          20      14.2189     0.999318   0.00136262  0.000467319 
          20      14.3348     0.999324   0.00136264  0.000462252 
          20       14.451     0.999329   0.00136267  0.000457246 
          20      14.5678     0.999334   0.00136271  0.000452293 
          20      14.6851      0.99934   0.00136277  0.000447398 
          20      14.8028     0.999345   0.00136286  0.000442561 
          20       14.921      0.99935   0.00136295  0.000437774 
          20      15.0396     0.999356   0.00136305  0.000433039 
          20      15.1588     0.999361   0.00136318  0.000428348 
          20      15.2783     0.999366    0.0013633  0.000423711 
          20      15.3984     0.999371   0.00136344  0.000419123 
          20       15.519     0.999376   0.00136359  0.000414588 
          20        15.64     0.999381   0.00136377  0.000410103 
          20      15.7615     0.999385   0.00136395  0.000405677 
          20      15.8834      0.99939   0.00136414    0.0004013 
          20      16.0058     0.999395   0.00136434   0.00039696 
          20      16.1286       0.9994   0.00136454   0.00039267 
          20       16.252     0.999405   0.00136476  0.000388423 
          20      16.3759     0.999409   0.00136499  0.000384225 
          20      16.5002     0.999414   0.00136524   0.00038008 
          20       16.625     0.999418    0.0013655  0.000375981 
          20      16.7501     0.999423   0.00136576  0.000371933 
          20      16.8759     0.999427   0.00136602  0.000367929 
          20       17.002     0.999432   0.00136628   0.00036397 
          20      17.1287     0.999436   0.00136655  0.000360049 
          20      17.2557     0.999441   0.00136683  0.000356172 
          20      17.3834     0.999445   0.00136713  0.000352331 
          20      17.5115     0.999449    0.0013674  0.000348534 
          20      17.6399     0.999453   0.00136765   0.00034479 
          20       17.769     0.999457   0.00136803  0.000341086 
          20      17.8984     0.999461   0.00136837  0.000337427 
          20      18.0284     0.999466   0.00136869  0.000333802 
          20      18.1587      0.99947   0.00136902  0.000330217 
          20      18.2896     0.999474   0.00136934  0.000326666 
          20       18.421     0.999478   0.00136968  0.000323154 
          20      18.5528     0.999482   0.00137002  0.000319688 
          20      18.6851     0.999485   0.00137037  0.000316266 
          20      18.8178     0.999489   0.00137075  0.000312893 
          20      18.9511     0.999493   0.00137113  0.000309557 
          20      19.0847     0.999497   0.00137148  0.000306244 
          20      19.2189     0.999501   0.00137172  0.000302914 
          20      19.3535     0.999505   0.00137217  0.000299715 
          20      19.4886     0.999508   0.00137257  0.000296521 
          20      19.6242     0.999512   0.00137294  0.000293346 
          20      19.7602     0.999516   0.00137332  0.000290203 
          20      19.8968     0.999519   0.00137371  0.000287093 
          20      20.0337     0.999522   0.00137411  0.000284024 
          20      20.1712     0.999526   0.00137451  0.000280992 
          20      20.3091     0.999529    0.0013749  0.000277999 
          20      20.4475     0.999533   0.00137527  0.000275039 
          20      20.5864     0.999537   0.00137564  0.000272111 
          20      20.7257      0.99954   0.00137602  0.000269217 
          20      20.8655     0.999543   0.00137642  0.000266351 
          20      21.0058     0.999547   0.00137686  0.000263518 
          20      21.1465      0.99955   0.00137728  0.000260717 
          20      21.2877     0.999554   0.00137754  0.000257957 
          20      21.4294     0.999557   0.00137806  0.000255216 
          20      21.5716      0.99956    0.0013785  0.000252511 
          20      21.7142     0.999563   0.00137891  0.000249844 
          20      21.8573     0.999566   0.00137929  0.000247209 
          20      22.0008     0.999569   0.00137968  0.000244609 
          20      22.1449     0.999572   0.00138009  0.000242038 
          20      22.2893     0.999575    0.0013805    0.0002395 
          20      22.4344     0.999578   0.00138093  0.000236988 
          20      22.5797     0.999581   0.00138136  0.000234506 
          20      22.7257     0.999584    0.0013818  0.000232048 
          20      22.8721     0.999587   0.00138223  0.000229615 
          20      23.0189      0.99959   0.00138266  0.000227208 
          20      23.1663     0.999593   0.00138307  0.000224823 
          20       23.314     0.999596   0.00138348  0.000222463 
          20      23.4623     0.999599   0.00138389  0.000220124 
          20       23.611     0.999602   0.00138429   0.00021781 
          20      23.7602     0.999605   0.00138469  0.000215518 
          20        23.91     0.999607   0.00138509   0.00021325 
          20        24.06      0.99961    0.0013855  0.000211009 
          20      24.2107     0.999613   0.00138592  0.000208794 
          20      24.3617     0.999615   0.00138635  0.000206608 
          20      24.5133     0.999618   0.00138679  0.000204451 
          20      24.6653     0.999621   0.00138724  0.000202326 
          20      24.8178     0.999623   0.00138769   0.00020023 
          20      24.9708     0.999626   0.00138815  0.000198167 
          20      25.1242     0.999629    0.0013886  0.000196136 
          20      25.2781     0.999631   0.00138904  0.000194131 
          20      25.4324     0.999634   0.00138947  0.000192153 
          20      25.5873     0.999637   0.00138987   0.00019019 
          20      25.7426     0.999639   0.00139024  0.000188237 
          20      25.8984     0.999642   0.00139058  0.000186276 
          20      26.0546     0.999644   0.00139089  0.000184293 
          20      26.2114     0.999647    0.0013912  0.000182341 
          20      26.3686     0.999648   0.00139161  0.000180608 
          20      26.5262     0.999651   0.00139212  0.000178839 
          20      26.6844     0.999654   0.00139278  0.000177022 
          20      26.8429     0.999656   0.00139319  0.000175253 
          20       27.002     0.999658   0.00139351   0.00017348 
          20      27.1615      0.99966   0.00139385  0.000171702 
          20      27.3216     0.999663   0.00139426   0.00016992 
          20      27.4821     0.999666   0.00139471  0.000168147 
          20       27.643     0.999668   0.00139507  0.000166415 
          20      27.8044      0.99967   0.00139547  0.000164711 
          20      27.9663     0.999672   0.00139588  0.000163036 
          20      28.1287     0.999674   0.00139629  0.000161389 
          20      28.2914     0.999677    0.0013967   0.00015977 
          20      28.4548     0.999679    0.0013971  0.000158175 
          20      28.6185     0.999681    0.0013975  0.000156605 
          20      28.7828     0.999683    0.0013979  0.000155054 
          20      28.9475     0.999685    0.0013983  0.000153522 
          20      29.1126     0.999687   0.00139871  0.000152009 
          20      29.2784     0.999689   0.00139912  0.000150511 
          20      29.4444     0.999691   0.00139954  0.000149029 
          20       29.611     0.999693   0.00139996  0.000147561 
          20       29.778     0.999696   0.00140038  0.000146109 
          20      29.9456     0.999698   0.00140079  0.000144671 
          20      30.1137       0.9997   0.00140118  0.000143248 
          20      30.2821     0.999702   0.00140156  0.000141841 
          20      30.4511     0.999704   0.00140192   0.00014045 
          20      30.6204     0.999706   0.00140225  0.000139077 
          20      30.7903     0.999708   0.00140257   0.00013772 
          20      30.9606      0.99971   0.00140289  0.000136381 
          20      31.1315     0.999712   0.00140322  0.000135059 
          20      31.3028     0.999714   0.00140357  0.000133753 
          20      31.4745     0.999715   0.00140396  0.000132465 
          20      31.6468     0.999717   0.00140439  0.000131192 
          20      31.8194     0.999719   0.00140484  0.000129937 
          20      31.9926      0.99972   0.00140529  0.000128698 
          20      32.1662     0.999721   0.00140563   0.00012748 
          20      32.3404     0.999723   0.00140573  0.000126284 
          20      32.5149     0.999726   0.00140637  0.000125124 
          20        32.69     0.999728   0.00140681  0.000123965 
          20      32.8655     0.999731   0.00140713  0.000122811 
          20      33.0414     0.999733   0.00140743  0.000121666 
          20       33.218     0.999734   0.00140775   0.00012053 
          20      33.3948     0.999736    0.0014081  0.000119407 
          20      33.5723     0.999737   0.00140849  0.000118297 
          20        33.75     0.999738   0.00140889  0.000117203 
          20      33.9284      0.99974    0.0014093  0.000116128 
          20      34.1073     0.999742   0.00140969  0.000115075 
          20      34.2865     0.999743   0.00141006  0.000114046 
          20      34.4663     0.999745   0.00141042  0.000113039 
          20      34.6465     0.999747   0.00141076  0.000112053 
          20      34.8272     0.999749   0.00141109  0.000111077 
          20      35.0083     0.999751    0.0014114  0.000110099 
          20        35.19     0.999752   0.00141165  0.000109095 
          20      35.3721     0.999754   0.00141181  0.000108037 
          20      35.5546     0.999756   0.00141221  0.000107124 
          20      35.7377     0.999757    0.0014127  0.000106286 
          20      35.9211     0.999759   0.00141311  0.000105408 
          20      36.1052      0.99976   0.00141347  0.000104502 
          20      36.2895     0.999762   0.00141379  0.000103583 
          20      36.4745     0.999763   0.00141409  0.000102658 
          20      36.6598     0.999765    0.0014144  0.000101739 
          20      36.8457     0.999767   0.00141471  0.000100831 
          20      37.0321     0.999768   0.00141503  9.99404e-05 
          20      37.2188      0.99977   0.00141536  9.90722e-05 
          20      37.4062     0.999771    0.0014157  9.82275e-05 
          20      37.5938     0.999773   0.00141603  9.74089e-05 
          20      37.7821     0.999774   0.00141636  9.66148e-05 
          20      37.9707     0.999776   0.00141669   9.5845e-05 
          20      38.1599     0.999777   0.00141701  9.50956e-05 
          20      38.3496     0.999778   0.00141733  9.43629e-05 
          20      38.5396     0.999779   0.00141765  9.36424e-05 
          20      38.7302      0.99978   0.00141799  9.29263e-05 
          20      38.9211     0.999782   0.00141832  9.22083e-05 
          20      39.1127     0.999784   0.00141863  9.14744e-05 
          20      39.3046     0.999785   0.00141889  9.07193e-05 
          20      39.4971     0.999787   0.00141912  8.99775e-05 
          20      39.6899     0.999788   0.00141935  8.92663e-05 
          20      39.8833      0.99979    0.0014196  8.85897e-05 
          20      40.0772     0.999791   0.00141989   8.7945e-05 
          20      40.2714     0.999792   0.00142023  8.73241e-05 
          20      40.4663     0.999794   0.00142061   8.6715e-05 
          20      40.6615     0.999795     0.001421  8.61076e-05 
          20      40.8573     0.999797   0.00142139  8.54921e-05 
          20      41.0534     0.999798   0.00142172   8.4865e-05 
          20      41.2501     0.999799     0.001422   8.4226e-05 
          20      41.4473     0.999801   0.00142221  8.35823e-05 
          20      41.6448     0.999802   0.00142237  8.29457e-05 
          20      41.8429     0.999803   0.00142253    8.233e-05 
          20      42.0414     0.999805   0.00142273  8.17511e-05 
          20      42.2405     0.999806   0.00142304  8.12178e-05 
          20      42.4399     0.999807   0.00142349  8.07296e-05 
          20      42.6399     0.999808   0.00142402  8.02638e-05 
          20      42.8404     0.999809   0.00142444  7.97677e-05 
          20      43.0412     0.999811    0.0014243  7.91437e-05 
          20      43.2426     0.999813   0.00142426   7.8551e-05 
          20      43.4444     0.999813   0.00142515  7.81918e-05 
          20      43.6467     0.999814   0.00142559   7.7741e-05 
          20      43.8494     0.999815   0.00142578  7.72405e-05 
          20      44.0527     0.999816   0.00142587    7.672e-05 
          20      44.2563     0.999817   0.00142595  7.62012e-05 
          20      44.4606     0.999818   0.00142608  7.56968e-05 
          20      44.6653     0.999819   0.00142627  7.52145e-05 
          20      44.8704      0.99982   0.00142653  7.47577e-05 
          20       45.076     0.999822   0.00142685  7.43251e-05 
          20       45.282     0.999823   0.00142719  7.39146e-05 
          20      45.4886     0.999824   0.00142756  7.35215e-05 
          20      45.6955     0.999825   0.00142791  7.31418e-05 
          20       45.903     0.999826   0.00142824    7.277e-05 
          20      46.1111     0.999828   0.00142854  7.24023e-05 
          20      46.3194     0.999829    0.0014288  7.20357e-05 
          20      46.5283      0.99983   0.00142903  7.16672e-05 
          20      46.7376     0.999832   0.00142922  7.12961e-05 
          20      46.9475     0.999833   0.00142938   7.0922e-05 
          20      47.1577     0.999834   0.00142954  7.05464e-05 
          20      47.3685     0.999835    0.0014297  7.01709e-05 
          20      47.5798     0.999836   0.00142987  6.97983e-05 
          20      47.7914     0.999837   0.00143007  6.94321e-05 
          20      48.0037     0.999838   0.00143031  6.90751e-05 