Variables = x, y, u, v, p

Zone, I=600, F=POINT
         100            0   2.3317e-18 -1.31218e-29 -0.000147342 
         100     0.000417  0.000210189  5.51096e-11 -0.000147342 
         100     0.001671   0.00084227  8.84953e-10 -0.000147341 
         100     0.003762   0.00189625  4.48554e-09  -0.00014734 
         100     0.006687   0.00337061  1.41727e-08 -0.000147338 
         100      0.01045    0.0052674  3.46128e-08 -0.000147335 
         100     0.015048   0.00758509  7.17762e-08 -0.000147332 
         100     0.020484    0.0103252  1.33007e-07 -0.000147329 
         100     0.026753    0.0134853   2.2689e-07 -0.000147325 
         100     0.033862    0.0170689  3.63517e-07  -0.00014732 
         100     0.041803    0.0210719  5.54047e-07 -0.000147315 
         100     0.050579    0.0254959   8.1116e-07  -0.00014731 
         100     0.060198    0.0303449  1.14912e-06 -0.000147304 
         100     0.070646    0.0356119  1.58277e-06 -0.000147297 
         100     0.081937     0.041304  2.12933e-06  -0.00014729 
         100     0.094057    0.0474139  2.80612e-06 -0.000147282 
         100     0.107021    0.0539494  3.63333e-06 -0.000147274 
         100     0.120813    0.0609021  4.63058e-06 -0.000147265 
         100      0.13545    0.0682806   5.8211e-06 -0.000147256 
         100     0.150914    0.0760755  7.22674e-06 -0.000147246 
         100     0.167213    0.0842908  8.87267e-06 -0.000147236 
         100     0.184359     0.092932  1.07862e-05 -0.000147225 
         100      0.20233     0.101988   1.2992e-05 -0.000147213 
         100     0.221149     0.111469  1.55213e-05 -0.000147201 
         100     0.240792     0.121363  1.84007e-05 -0.000147188 
         100     0.261284     0.131681  2.16644e-05 -0.000147175 
         100     0.282599     0.142409  2.53405e-05 -0.000147161 
         100     0.304763     0.153559  2.94662e-05 -0.000147147 
         100      0.32775     0.165115  3.40707e-05 -0.000147132 
         100     0.351587     0.177091  3.91944e-05 -0.000147116 
         100     0.376246     0.189468  4.48666e-05   -0.0001471 
         100      0.40174     0.202251  5.11264e-05 -0.000147083 
         100     0.428086     0.215444  5.80148e-05 -0.000147065 
         100     0.455252     0.229027  6.55605e-05 -0.000147047 
         100     0.483271     0.243013  7.38097e-05 -0.000147028 
         100     0.512109     0.257378  8.27893e-05 -0.000147008 
         100     0.541801     0.272134  9.25466e-05 -0.000146987 
         100     0.572311     0.287256  0.000103106 -0.000146965 
         100     0.603676     0.302753  0.000114514 -0.000146942 
         100     0.635857     0.318596  0.000126791 -0.000146918 
         100     0.668875     0.334787  0.000139975 -0.000146893 
         100     0.702748      0.35132  0.000154104 -0.000146866 
         100     0.737438     0.368165   0.00016919 -0.000146838 
         100     0.772984     0.385326  0.000185273 -0.000146809 
         100     0.809345     0.402766  0.000202355 -0.000146778 
         100     0.846564     0.420487  0.000220474 -0.000146746 
         100     0.884597      0.43845  0.000239623 -0.000146711 
         100     0.923489     0.456653  0.000259831 -0.000146675 
         100     0.963194     0.475051   0.00028108 -0.000146637 
         100      1.00376     0.493641  0.000303393 -0.000146596 
         100      1.04514     0.512373  0.000326739 -0.000146552 
         100      1.08735     0.531228  0.000351117 -0.000146506 
         100      1.13042     0.550187  0.000376525 -0.000146458 
         100      1.17431     0.569193  0.000402909 -0.000146406 
         100      1.21905     0.588234  0.000430269 -0.000146351 
         100      1.26461     0.607249  0.000458536 -0.000146292 
         100      1.31103     0.626221  0.000487698  -0.00014623 
         100      1.35826     0.645088   0.00051767 -0.000146165 
         100      1.40635      0.66383  0.000548427 -0.000146095 
         100      1.45525     0.682378  0.000579864 -0.000146021 
         100      1.50498     0.700702   0.00061192 -0.000145943 
         100      1.55558     0.718764  0.000644536  -0.00014586 
         100      1.60699     0.736496  0.000677568 -0.000145773 
         100      1.65927     0.753873  0.000710956 -0.000145681 
         100      1.71235     0.770829  0.000744548 -0.000145583 
         100      1.76629     0.787338  0.000778264 -0.000145481 
         100      1.82104     0.803336  0.000811933 -0.000145374 
         100      1.87666     0.818802  0.000845461 -0.000145261 
         100      1.93309     0.833675  0.000878666 -0.000145143 
         100      1.99034     0.847931  0.000911426 -0.000145019 
         100      2.04847     0.861545  0.000943617  -0.00014489 
         100       2.1074     0.874472   0.00097506 -0.000144755 
         100      2.16721     0.886706   0.00100565 -0.000144615 
         100      2.22781     0.898213   0.00103523 -0.000144469 
         100      2.28928     0.908997   0.00106372 -0.000144318 
         100      2.35156     0.919038   0.00109095 -0.000144162 
         100       2.4147     0.928347   0.00111689    -0.000144 
         100      2.47865      0.93692    0.0011414 -0.000143833 
         100      2.54347     0.944779   0.00116445 -0.000143661 
         100      2.60909      0.95193   0.00118598 -0.000143484 
         100      2.67554     0.958402   0.00120595 -0.000143302 
         100      2.74287     0.964225   0.00122437 -0.000143115 
         100        2.811     0.969422   0.00124123 -0.000142925 
         100         2.88     0.974035   0.00125656 -0.000142729 
         100      2.94979     0.978096   0.00127039  -0.00014253 
         100      3.02047     0.981649   0.00128279 -0.000142327 
         100      3.09194     0.984732    0.0012938 -0.000142119 
         100      3.16429     0.987388   0.00130352 -0.000141908 
         100      3.23743     0.989656   0.00131202 -0.000141694 
         100       3.3114     0.991579   0.00131941 -0.000141476 
         100      3.38626     0.993196   0.00132577 -0.000141255 
         100      3.46191     0.994542    0.0013312 -0.000141031 
         100      3.53844     0.995655    0.0013358 -0.000140803 
         100      3.61576     0.996565   0.00133965 -0.000140572 
         100      3.69396     0.997304   0.00134286 -0.000140339 
         100      3.77295     0.997897   0.00134551 -0.000140102 
         100      3.85283      0.99837   0.00134768 -0.000139863 
         100      3.93349     0.998742   0.00134945 -0.000139621 
         100      4.01504     0.999032   0.00135087 -0.000139376 
         100      4.09737     0.999255   0.00135201 -0.000139129 
         100      4.18054     0.999426   0.00135291 -0.000138878 
         100       4.2646     0.999556   0.00135363 -0.000138625 
         100      4.34945     0.999652    0.0013542  -0.00013837 
         100      4.43518     0.999723   0.00135466 -0.000138113 
         100      4.52169     0.999775   0.00135502 -0.000137853 
         100      4.60909     0.999813   0.00135531 -0.000137589 
         100      4.69728      0.99984   0.00135555 -0.000137324 
         100      4.78636     0.999859   0.00135574 -0.000137055 
         100      4.87621     0.999872   0.00135591 -0.000136785 
         100      4.96691     0.999881   0.00135605  -0.00013651 
         100      5.05849     0.999887   0.00135618 -0.000136233 
         100      5.15086     0.999891    0.0013563 -0.000135955 
         100      5.24411     0.999894   0.00135641 -0.000135673 
         100      5.33815     0.999896   0.00135651 -0.000135389 
         100      5.43308     0.999897   0.00135662 -0.000135099 
         100      5.52879     0.999898   0.00135672 -0.000134813 
         100       5.6254     0.999898   0.00135682 -0.000134521 
         100      5.72278     0.999898   0.00135691 -0.000134225 
         100      5.82099     0.999899   0.00135701 -0.000133927 
         100      5.92011     0.999899   0.00135711 -0.000133626 
         100         6.02     0.999899    0.0013572 -0.000133323 
         100      6.12078     0.999899    0.0013573 -0.000133019 
         100      6.22234     0.999899    0.0013574 -0.000132711 
         100       6.3248     0.999899    0.0013575 -0.000132401 
         100      6.42803     0.999899   0.00135759 -0.000132089 
         100      6.53216     0.999899   0.00135769 -0.000131774 
         100      6.63707     0.999899   0.00135778 -0.000131457 
         100      6.74287     0.999899   0.00135789 -0.000131137 
         100      6.84945     0.999899   0.00135799 -0.000130814 
         100      6.95686       0.9999   0.00135808 -0.000130488 
         100      7.06517       0.9999   0.00135817  -0.00013016 
         100      7.17426       0.9999   0.00135827 -0.000129827 
         100      7.28424       0.9999   0.00135838 -0.000129493 
         100        7.395       0.9999   0.00135848 -0.000129159 
         100      7.50666       0.9999   0.00135856  -0.00012882 
         100      7.61908       0.9999   0.00135868 -0.000128478 
         100      7.73241       0.9999   0.00135875 -0.000128135 
         100      7.84651       0.9999   0.00135886 -0.000127789 
         100      7.96145       0.9999   0.00135898  -0.00012744 
         100      8.07729       0.9999   0.00135907  -0.00012709 
         100      8.19389       0.9999   0.00135916 -0.000126737 
         100      8.31141       0.9999   0.00135924  -0.00012638 
         100      8.42969       0.9999   0.00135934 -0.000126021 
         100      8.54887       0.9999   0.00135944 -0.000125658 
         100      8.66882       0.9999   0.00135955 -0.000125293 
         100      8.78968       0.9999   0.00135965 -0.000124927 
         100      8.91131     0.999901   0.00135975 -0.000124559 
         100      9.03384     0.999901   0.00135984 -0.000124189 
         100      9.15713     0.999901   0.00135992 -0.000123817 
         100      9.28126     0.999901   0.00136001  -0.00012344 
         100       9.4063     0.999901   0.00136011 -0.000123058 
         100       9.5321     0.999901   0.00136023 -0.000122673 
         100      9.65882     0.999901   0.00136034 -0.000122292 
         100      9.78629     0.999901   0.00136043 -0.000121904 
         100      9.91468     0.999901   0.00136051 -0.000121508 
         100      10.0438     0.999901   0.00136059 -0.000121114 
         100      10.1739     0.999901   0.00136068 -0.000120723 
         100      10.3047     0.999901   0.00136079 -0.000120333 
         100      10.4363     0.999901   0.00136089 -0.000119935 
         100      10.5689     0.999902   0.00136099 -0.000119532 
         100      10.7022     0.999902   0.00136108 -0.000119127 
         100      10.8365     0.999902   0.00136118  -0.00011872 
         100      10.9715     0.999902   0.00136125 -0.000118311 
         100      11.1074     0.999902   0.00136132 -0.000117898 
         100      11.2441     0.999902    0.0013614 -0.000117486 
         100      11.3816     0.999902    0.0013615 -0.000117072 
         100        11.52     0.999902    0.0013616 -0.000116654 
         100      11.6592     0.999902   0.00136169 -0.000116232 
         100      11.7993     0.999902   0.00136179 -0.000115805 
         100      11.9401     0.999902   0.00136187 -0.000115376 
         100      12.0819     0.999902   0.00136195 -0.000114943 
         100      12.2244     0.999902   0.00136203 -0.000114509 
         100      12.3678     0.999903   0.00136212 -0.000114073 
         100       12.512     0.999903   0.00136223 -0.000113637 
         100      12.6571     0.999903   0.00136233   -0.0001132 
         100       12.803     0.999903   0.00136241 -0.000112763 
         100      12.9498     0.999903   0.00136246 -0.000112327 
         100      13.0973     0.999903    0.0013625  -0.00011189 
         100      13.2457     0.999903   0.00136267  -0.00011145 
         100       13.395     0.999903   0.00136265 -0.000111008 
         100       13.545     0.999903   0.00136275 -0.000110556 
         100       13.696     0.999903   0.00136287 -0.000110092 
         100      13.8477     0.999903   0.00136297 -0.000109617 
         100      14.0004     0.999903   0.00136305 -0.000109137 
         100      14.1537     0.999904   0.00136311  -0.00010867 
         100      14.3081     0.999904   0.00136314 -0.000108244 
         100      14.4631     0.999904   0.00136324 -0.000107776 
         100       14.619     0.999904   0.00136336 -0.000107284 
         100      14.7758     0.999904   0.00136344  -0.00010682 
         100      14.9334     0.999904   0.00136349 -0.000106363 
         100      15.0919     0.999904   0.00136353   -0.0001059 
         100      15.2511     0.999904   0.00136358 -0.000105428 
         100      15.4113     0.999904   0.00136364 -0.000104946 
         100      15.5722     0.999904   0.00136372 -0.000104458 
         100      15.7341     0.999905    0.0013638 -0.000103964 
         100      15.8966     0.999905   0.00136388 -0.000103469 
         100      16.0602     0.999905   0.00136396 -0.000102974 
         100      16.2244     0.999905   0.00136402 -0.000102479 
         100      16.3895     0.999905   0.00136406 -0.000101984 
         100      16.5555     0.999905    0.0013641 -0.000101489 
         100      16.7223     0.999905    0.0013642 -0.000100996 
         100        16.89     0.999906   0.00136423 -0.000100507 
         100      17.0584     0.999905   0.00136431 -0.000100014 
         100      17.2278     0.999905   0.00136438 -9.95194e-05 
         100      17.3979     0.999905   0.00136443 -9.90223e-05 
         100      17.5689     0.999906   0.00136447 -9.85213e-05 
         100      17.7407     0.999906   0.00136451 -9.80157e-05 
         100      17.9133     0.999906   0.00136456 -9.75044e-05 
         100      18.0869     0.999906   0.00136463 -9.69871e-05 
         100      18.2611     0.999906    0.0013647 -9.64652e-05 
         100      18.4364     0.999906   0.00136478 -9.59399e-05 
         100      18.6123     0.999906   0.00136484 -9.54141e-05 
         100      18.7892     0.999906   0.00136489 -9.48892e-05 
         100      18.9669     0.999906   0.00136491 -9.43674e-05 
         100      19.1454     0.999907   0.00136492 -9.38482e-05 
         100      19.3247     0.999907   0.00136493 -9.33294e-05 
         100       19.505     0.999907   0.00136496  -9.2804e-05 
         100      19.6859     0.999907   0.00136504 -9.22614e-05 
         100      19.8677     0.999907   0.00136516 -9.17091e-05 
         100      20.0505     0.999907   0.00136516 -9.12271e-05 
         100       20.234     0.999907    0.0013652 -9.06946e-05 
         100      20.4184     0.999907   0.00136522  -9.0133e-05 
         100      20.6035     0.999908   0.00136518 -8.95658e-05 
         100      20.7896     0.999908   0.00136523 -8.90247e-05 
         100      20.9765     0.999908   0.00136533 -8.85089e-05 
         100      21.1642     0.999908   0.00136525 -8.79607e-05 
         100      21.3527     0.999908   0.00136535  -8.7425e-05 
         100      21.5421     0.999908   0.00136546 -8.68914e-05 
         100      21.7323     0.999908   0.00136551 -8.63529e-05 
         100      21.9233     0.999909    0.0013655 -8.58067e-05 
         100      22.1153     0.999909   0.00136547 -8.52515e-05 
         100       22.308     0.999909   0.00136544 -8.46895e-05 
         100      22.5016     0.999909   0.00136545 -8.41238e-05 
         100      22.6959     0.999909   0.00136551 -8.35604e-05 
         100      22.8912     0.999909   0.00136556 -8.30061e-05 
         100      23.0872     0.999909    0.0013656 -8.24451e-05 
         100      23.2841      0.99991   0.00136563 -8.18789e-05 
         100      23.4819      0.99991   0.00136564 -8.13106e-05 
         100      23.6804      0.99991   0.00136562 -8.07432e-05 
         100      23.8799      0.99991   0.00136559 -8.01771e-05 
         100      24.0801     0.999911   0.00136557  -7.9613e-05 
         100      24.2813     0.999911   0.00136559 -7.90489e-05 
         100      24.4831      0.99991   0.00136566 -7.84839e-05 
         100       24.686      0.99991   0.00136574 -7.79149e-05 
         100      24.8895      0.99991    0.0013658 -7.73411e-05 
         100       25.094     0.999911   0.00136576 -7.67617e-05 
         100      25.2992     0.999911   0.00136561   -7.618e-05 
         100      25.5052     0.999912   0.00136551 -7.56031e-05 
         100      25.7123     0.999911   0.00136588 -7.50446e-05 
         100        25.92     0.999912   0.00136553 -7.44832e-05 
         100      26.1287     0.999912   0.00136555 -7.39144e-05 
         100       26.338     0.999912   0.00136565  -7.3337e-05 
         100      26.5484     0.999912   0.00136572   -7.275e-05 
         100      26.7595     0.999912   0.00136572 -7.21546e-05 
         100      26.9715     0.999912   0.00136566 -7.15511e-05 
         100      27.1842     0.999913   0.00136558 -7.09423e-05 
         100      27.3978     0.999913   0.00136552 -7.03303e-05 
         100      27.6123     0.999913   0.00136549 -6.97182e-05 
         100      27.8276     0.999914    0.0013655 -6.91111e-05 
         100      28.0438     0.999914   0.00136555 -6.85136e-05 
         100      28.2607     0.999914   0.00136559  -6.7933e-05 
         100      28.4786     0.999914   0.00136559 -6.73768e-05 
         100      28.6972     0.999914    0.0013655 -6.68546e-05 
         100      28.9167     0.999914   0.00136548 -6.62548e-05 
         100       29.137     0.999914   0.00136551 -6.55886e-05 
         100      29.3582     0.999914   0.00136545   -6.497e-05 
         100      29.5801     0.999914   0.00136535 -6.43744e-05 
         100      29.8029     0.999915   0.00136525 -6.37849e-05 
         100      30.0266     0.999916   0.00136517 -6.31926e-05 
         100      30.2511     0.999916   0.00136511 -6.25953e-05 
         100      30.4765     0.999916   0.00136507 -6.19935e-05 
         100      30.7026     0.999916   0.00136507 -6.13914e-05 
         100      30.9297     0.999916   0.00136511 -6.07926e-05 
         100      31.1574     0.999916   0.00136518 -6.02025e-05 
         100      31.3862     0.999916   0.00136518 -5.96255e-05 
         100      31.6156     0.999916   0.00136498 -5.90463e-05 
         100      31.8459     0.999917   0.00136486 -5.84081e-05 
         100      32.0772     0.999916   0.00136476  -5.7742e-05 
         100      32.3092     0.999916   0.00136473 -5.70599e-05 
         100      32.5421     0.999917   0.00136471 -5.64067e-05 
         100      32.7757     0.999918   0.00136468 -5.58608e-05 
         100      33.0103     0.999919   0.00136473 -5.51209e-05 
         100      33.2456     0.999919   0.00136475 -5.44995e-05 
         100      33.4819     0.999919   0.00136475 -5.39499e-05 
         100      33.7189     0.999918   0.00136471 -5.34352e-05 
         100      33.9567     0.999918   0.00136463  -5.2926e-05 
         100      34.1955     0.999919    0.0013645 -5.24009e-05 
         100       34.435     0.999919   0.00136433 -5.18473e-05 
         100      34.6754      0.99992   0.00136414 -5.12582e-05 
         100      34.9166     0.999921   0.00136394  -5.0634e-05 
         100      35.1587     0.999921   0.00136376 -4.99787e-05 
         100      35.4016     0.999921   0.00136363 -4.93013e-05 
         100      35.6454     0.999922   0.00136355 -4.86117e-05 
         100      35.8899     0.999922   0.00136354  -4.7922e-05 
         100      36.1353     0.999922   0.00136359 -4.72424e-05 
         100      36.3815     0.999922   0.00136368  -4.6583e-05 
         100      36.6285     0.999922   0.00136378 -4.59494e-05 
         100      36.8765     0.999922   0.00136386 -4.53437e-05 
         100      37.1252     0.999923   0.00136387 -4.47647e-05 
         100      37.3749     0.999923   0.00136379 -4.42051e-05 
         100      37.6252     0.999924    0.0013636 -4.36547e-05 
         100      37.8765     0.999924   0.00136332 -4.30987e-05 
         100      38.1286     0.999925   0.00136296  -4.2522e-05 
         100      38.3816     0.999925   0.00136261 -4.19089e-05 
         100      38.6353     0.999925   0.00136233 -4.12495e-05 
         100      38.8898     0.999924   0.00136223 -4.05418e-05 
         100      39.1453     0.999924   0.00136236 -3.97982e-05 
         100      39.4015     0.999924   0.00136273 -3.90546e-05 
         100      39.6587     0.999924   0.00136321 -3.83759e-05 
         100      39.9166     0.999925   0.00136344 -3.78698e-05 
         100      40.1754     0.999927   0.00136269 -3.76967e-05 
         100       40.435     0.999929   0.00135974 -3.80862e-05 
         100      40.6955     0.999928   0.00136143 -3.63812e-05 
         100      40.9567     0.999928   0.00136276  -3.5288e-05 
         100      41.2189     0.999928   0.00136292 -3.44262e-05 
         100      41.4818     0.999928   0.00136246 -3.37866e-05 
         100      41.7456     0.999928   0.00136187 -3.33139e-05 
         100      42.0103     0.999928   0.00136143 -3.28839e-05 
         100      42.2757     0.999928   0.00136121 -3.24311e-05 
         100      42.5421     0.999929   0.00136116 -3.19222e-05 
         100      42.8091     0.999929   0.00136119 -3.13483e-05 
         100      43.0772      0.99993   0.00136123 -3.07151e-05 
         100      43.3459      0.99993   0.00136122 -3.00383e-05 
         100      43.6157      0.99993   0.00136111 -2.93359e-05 
         100      43.8861      0.99993   0.00136094  -2.8627e-05 
         100      44.1573      0.99993   0.00136072 -2.79265e-05 
         100      44.4296     0.999931   0.00136049 -2.72447e-05 
         100      44.7025     0.999931   0.00136031 -2.65876e-05 
         100      44.9764     0.999931   0.00136018 -2.59544e-05 
         100       45.251     0.999932   0.00136011 -2.53414e-05 
         100      45.5266     0.999932   0.00136009 -2.47405e-05 
         100      45.8029     0.999933   0.00136006 -2.41435e-05 
         100      46.0801     0.999933   0.00135999 -2.35411e-05 
         100      46.3581     0.999934   0.00135984 -2.29276e-05 
         100      46.6368     0.999934   0.00135959 -2.22995e-05 
         100      46.9166     0.999934   0.00135926 -2.16575e-05 
         100       47.197     0.999934   0.00135891  -2.1007e-05 
         100      47.4785     0.999934   0.00135866 -2.03547e-05 
         100      47.7606     0.999934    0.0013586 -1.97082e-05 
         100      48.0437     0.999935    0.0013588 -1.90686e-05 
         100      48.3275     0.999936   0.00135915 -1.84261e-05 
         100      48.6123     0.999936   0.00135922 -1.77474e-05 
         100      48.8978     0.999937   0.00135802 -1.69665e-05 
         100      49.1842     0.999938   0.00135836 -1.64209e-05 
         100      49.4714     0.999937   0.00135873 -1.58473e-05 
         100      49.7593     0.999937   0.00135837 -1.51737e-05 
         100      50.0483     0.999936   0.00135784 -1.44855e-05 
         100      50.3379     0.999937   0.00135741 -1.38346e-05 
         100      50.6286     0.999938   0.00135715 -1.32419e-05 
         100      50.9199     0.999939   0.00135703 -1.27035e-05 
         100      51.2122      0.99994   0.00135699 -1.21892e-05 
         100      51.5052      0.99994   0.00135701  -1.1645e-05 
         100      51.7992      0.99994    0.0013571 -1.09881e-05 
         100      52.0938      0.99994   0.00135742 -1.01051e-05 
         100      52.3893     0.999941   0.00135702 -9.73016e-06 
         100      52.6858     0.999941   0.00135656  -9.3247e-06 
         100       52.983     0.999942   0.00135622 -8.76673e-06 
         100      53.2811     0.999942   0.00135597 -8.10623e-06 
         100        53.58     0.999943   0.00135579 -7.38625e-06 
         100      53.8798     0.999943   0.00135566 -6.64027e-06 
         100      54.1803     0.999944   0.00135557  -5.8959e-06 
         100      54.4819     0.999945   0.00135548 -5.17185e-06 
         100       54.784     0.999946   0.00135538 -4.48189e-06 
         100      55.0872     0.999946   0.00135525 -3.83198e-06 
         100      55.3911     0.999947   0.00135507  -3.2242e-06 
         100      55.6957     0.999947   0.00135484 -2.65461e-06 
         100      56.0014     0.999947   0.00135458 -2.11539e-06 
         100      56.3078     0.999947   0.00135432 -1.59667e-06 
         100      56.6152     0.999947    0.0013541 -1.08532e-06 
         100      56.9232     0.999947   0.00135396 -5.68802e-07 
         100      57.2323     0.999948   0.00135392 -3.40987e-08 
         100      57.5419     0.999949   0.00135391  5.28114e-07 
         100      57.8527     0.999952   0.00135375  1.12415e-06 
         100       58.164     0.999953   0.00135352  1.77423e-06 
         100      58.4762     0.999951   0.00135349  2.50673e-06 
         100      58.7895      0.99995   0.00135327  3.25673e-06 
         100      59.1034      0.99995     0.001353   3.9883e-06 
         100      59.4183      0.99995   0.00135272  4.68524e-06 
         100      59.7338     0.999951   0.00135247  5.34297e-06 
         100      60.0504     0.999952   0.00135224  5.96771e-06 
         100      60.3676     0.999954   0.00135203  6.56963e-06 
         100      60.6858     0.999955   0.00135183  7.16275e-06 
         100      61.0047     0.999956   0.00135164  7.75937e-06 
         100      61.3245     0.999956   0.00135146  8.37054e-06 
         100      61.6452     0.999957   0.00135128  9.00351e-06 
         100      61.9666     0.999957   0.00135113  9.65959e-06 
         100      62.2891     0.999956     0.001351  1.03366e-05 
         100      62.6121     0.999956   0.00135089  1.10259e-05 
         100      62.9362     0.999956   0.00135081  1.17167e-05 
         100       63.261     0.999956   0.00135074   1.2394e-05 
         100      63.5868     0.999956   0.00135065  1.30447e-05 
         100      63.9132     0.999956   0.00135053  1.36565e-05 
         100      64.2406     0.999957   0.00135034  1.42252e-05 
         100      64.5687     0.999958   0.00135008  1.47557e-05 
         100      64.8976     0.999959   0.00134973  1.52697e-05 
         100      65.2276      0.99996   0.00134937  1.58099e-05 
         100      65.5582     0.999962   0.00134911   1.6446e-05 
         100      65.8898     0.999962   0.00134915   1.7284e-05 
         100      66.2221     0.999961   0.00134987   1.8471e-05 
         100      66.5554     0.999963   0.00134898  1.87428e-05 
         100      66.8893     0.999965   0.00134809  1.89645e-05 
         100      67.2243     0.999964   0.00134787  1.94814e-05 
         100      67.5599     0.999962   0.00134805   2.0171e-05 
         100      67.8964     0.999961   0.00134822  2.08968e-05 
         100      68.2338     0.999964   0.00134786  2.14964e-05 
         100       68.572     0.999966   0.00134751  2.21799e-05 
         100      68.9111     0.999966   0.00134759  2.29857e-05 
         100      69.2509     0.999966   0.00134755  2.37063e-05 
         100      69.5917     0.999966   0.00134742  2.43622e-05 
         100      69.9332     0.999967   0.00134722  2.49713e-05 
         100      70.2757     0.999967   0.00134696  2.55517e-05 
         100      70.6188     0.999968   0.00134667  2.61174e-05 
         100       70.963     0.999968   0.00134636  2.66815e-05 
         100      71.3078     0.999969   0.00134606  2.72526e-05 
         100      71.6535      0.99997   0.00134577   2.7837e-05 
         100      72.0001      0.99997   0.00134552  2.84385e-05 
         100      72.3475     0.999971    0.0013453   2.9057e-05 
         100      72.6958     0.999971   0.00134512  2.96916e-05 
         100      73.0448     0.999972   0.00134498  3.03379e-05 
         100      73.3948     0.999973   0.00134488  3.09921e-05 
         100      73.7455     0.999974   0.00134479   3.1648e-05 
         100      74.0972     0.999974   0.00134472  3.23013e-05 
         100      74.4495     0.999975   0.00134464  3.29464e-05 
         100      74.8027     0.999975   0.00134454  3.35803e-05 
         100      75.1569     0.999976    0.0013444  3.42016e-05 
         100      75.5117     0.999976   0.00134422    3.481e-05 
         100      75.8676     0.999976   0.00134399  3.54087e-05 
         100      76.2241     0.999976    0.0013437  3.60018e-05 
         100      76.5817     0.999977   0.00134338  3.65966e-05 
         100      76.9399     0.999977   0.00134302  3.72007e-05 
         100      77.2991     0.999977   0.00134266   3.7823e-05 
         100      77.6589     0.999978   0.00134232  3.84705e-05 
         100      78.0198     0.999979   0.00134204  3.91485e-05 
         100      78.3814      0.99998   0.00134183  3.98559e-05 
         100      78.7437     0.999981   0.00134172  4.05844e-05 
         100      79.1071     0.999982   0.00134172   4.1314e-05 
         100      79.4712     0.999984   0.00134178  4.20075e-05 
         100      79.8363     0.999984   0.00134183  4.26077e-05 
         100       80.202     0.999985   0.00134173  4.30288e-05 
         100      80.5687     0.999984   0.00134121  4.31516e-05 
         100      80.9361     0.999984   0.00134131  4.39321e-05 
         100      81.3045     0.999984   0.00134098  4.46696e-05 
         100      81.6736     0.999985   0.00134051  4.51493e-05 
         100      82.0435      0.99999   0.00134133  4.55348e-05 
         100      82.4144     0.999988   0.00133981  4.62709e-05 
         100       82.786     0.999986   0.00133869  4.71622e-05 
         100      83.1586     0.999986   0.00133863  4.80297e-05 
         100      83.5318     0.999987   0.00133894   4.8814e-05 
         100      83.9061     0.999988   0.00133929  4.94752e-05 
         100       84.281     0.999989   0.00133959  4.99855e-05 
         100      84.6569      0.99999   0.00133984   5.0329e-05 
         100      85.0335      0.99999   0.00134012  5.04974e-05 
         100      85.4109     0.999992   0.00133916  5.14032e-05 