Variables = x, y, u, v, p

Zone, I=400, F=POINT
         750            0            0            0 -9.45961e-06 
         750     0.000471  0.000149937  1.62422e-11 -9.45954e-06 
         750     0.001884  0.000599747  2.59864e-10 -9.45934e-06 
         750     0.004239   0.00134943  1.31555e-09 -9.45899e-06 
         750     0.007537   0.00239931  4.15889e-09 -9.45851e-06 
         750     0.011776   0.00374874  1.01526e-08 -9.45789e-06 
         750     0.016958   0.00539836  2.10537e-08 -9.45713e-06 
         750     0.023081   0.00734754  3.90022e-08 -9.45623e-06 
         750      0.03015   0.00959786  6.65509e-08  -9.4552e-06 
         750     0.038157    0.0121468  1.06593e-07 -9.45402e-06 
         750     0.047107    0.0149959  1.62462e-07 -9.45271e-06 
         750     0.056999    0.0181449  2.37856e-07 -9.45127e-06 
         750     0.067837     0.021595  3.36909e-07 -9.44968e-06 
         750     0.079614     0.025344  4.64043e-07 -9.44795e-06 
         750     0.092332    0.0293926  6.24141e-07 -9.44609e-06 
         750     0.105992     0.033741  8.22477e-07 -9.44409e-06 
         750       0.1206    0.0383911  1.06481e-06 -9.44195e-06 
         750     0.136145    0.0433394  1.35699e-06 -9.43968e-06 
         750     0.152631    0.0485872  1.70551e-06 -9.43726e-06 
         750     0.170067    0.0541371  2.11741e-06 -9.43471e-06 
         750     0.188438    0.0599845  2.59953e-06 -9.43202e-06 
         750     0.207751    0.0661314  3.15962e-06 -9.42919e-06 
         750     0.228006    0.0725778  3.80565e-06 -9.42622e-06 
         750     0.249212    0.0793262  4.54632e-06 -9.42311e-06 
         750     0.271351    0.0863709  5.38973e-06 -9.41987e-06 
         750     0.294433    0.0937148  6.34533e-06 -9.41648e-06 
         750     0.318456     0.101357  7.42253e-06 -9.41296e-06 
         750     0.343432     0.109301  8.63179e-06  -9.4093e-06 
         750     0.369339     0.117539  9.98226e-06  -9.4055e-06 
         750     0.396189     0.126075  1.14851e-05 -9.40155e-06 
         750     0.423981     0.134907  1.31511e-05 -9.39747e-06 
         750     0.452726     0.144039  1.49924e-05 -9.39324e-06 
         750     0.482403     0.153463  1.70192e-05 -9.38887e-06 
         750     0.513021     0.163181   1.9244e-05 -9.38436e-06 
         750     0.544594     0.173195    2.168e-05 -9.37971e-06 
         750     0.577096     0.183498  2.43378e-05 -9.37491e-06 
         750     0.610541     0.194091  2.72311e-05 -9.36996e-06 
         750     0.644927     0.204971  3.03728e-05 -9.36486e-06 
         750      0.68027     0.216143  3.37777e-05 -9.35961e-06 
         750     0.716541     0.227594  3.74565e-05 -9.35421e-06 
         750     0.753754     0.239326  4.14238e-05 -9.34865e-06 
         750     0.791909     0.251337  4.56934e-05 -9.34294e-06 
         750     0.831022     0.263627  5.02809e-05 -9.33706e-06 
         750     0.871061     0.276183  5.51961e-05 -9.33102e-06 
         750     0.912043     0.289006  6.04547e-05 -9.32482e-06 
         750     0.953966      0.30209    6.607e-05 -9.31843e-06 
         750     0.996849     0.315436   7.2058e-05 -9.31187e-06 
         750      1.04066     0.329027  7.84269e-05 -9.30512e-06 
         750      1.08541     0.342862  8.51919e-05 -9.29819e-06 
         750      1.13112     0.356939   9.2368e-05 -9.29106e-06 
         750      1.17775     0.371239  9.99616e-05 -9.28372e-06 
         750      1.22533     0.385758  0.000107986 -9.27618e-06 
         750      1.27384     0.400487  0.000116452 -9.26842e-06 
         750      1.32333     0.415421  0.000125372 -9.26042e-06 
         750      1.37373     0.430537  0.000134749 -9.25218e-06 
         750      1.42507     0.445829  0.000144592 -9.24368e-06 
         750      1.47736     0.461282  0.000154907 -9.23494e-06 
         750      1.53061     0.476889  0.000165704 -9.22594e-06 
         750      1.58478     0.492621  0.000176975 -9.21662e-06 
         750      1.63989     0.508468  0.000188728 -9.20697e-06 
         750      1.69595     0.524413   0.00020096 -9.19701e-06 
         750      1.75297     0.540442  0.000213674 -9.18671e-06 
         750      1.81091     0.556523  0.000226854 -9.17607e-06 
         750      1.86979     0.572641  0.000240498 -9.16507e-06 
         750      1.92964      0.58878    0.0002546 -9.15369e-06 
         750       1.9904     0.604904  0.000269136  -9.1419e-06 
         750      2.05211     0.620995  0.000284095 -9.12968e-06 
         750      2.11476     0.637028  0.000299458   -9.117e-06 
         750      2.17838     0.652982  0.000315209 -9.10384e-06 
         750      2.24291     0.668819  0.000331311 -9.09018e-06 
         750      2.30839     0.684516  0.000347739   -9.076e-06 
         750       2.3748     0.700046  0.000364464 -9.06127e-06 
         750      2.44219     0.715386  0.000381456 -9.04597e-06 
         750      2.51049     0.730496  0.000398664  -9.0301e-06 
         750      2.57974     0.745353  0.000416053 -9.01363e-06 
         750      2.64993     0.759928   0.00043358 -8.99655e-06 
         750      2.72108     0.774199  0.000451205 -8.97883e-06 
         750      2.79315     0.788127  0.000468865 -8.96048e-06 
         750      2.86617     0.801692  0.000486516 -8.94146e-06 
         750      2.94012     0.814868  0.000504107 -8.92175e-06 
         750      3.01505     0.827637  0.000521589 -8.90132e-06 
         750      3.09089     0.839965  0.000538896 -8.88016e-06 
         750      3.16767     0.851838  0.000555979 -8.85823e-06 
         750      3.24542     0.863242  0.000572793 -8.83551e-06 
         750      3.32409     0.874151  0.000589269 -8.81201e-06 
         750       3.4037     0.884558  0.000605365 -8.78771e-06 
         750      3.48425     0.894451   0.00062103 -8.76265e-06 
         750      3.56577     0.903826  0.000636225 -8.73691e-06 
         750       3.6482     0.912671  0.000650894 -8.71064e-06 
         750      3.73158     0.920987  0.000665004 -8.68409e-06 
         750       3.8159     0.928776  0.000678518  -8.6571e-06 
         750      3.90119     0.936046  0.000691412 -8.62891e-06 
         750       3.9874     0.942796  0.000703651 -8.59979e-06 
         750      4.07454     0.949041  0.000715221 -8.56989e-06 
         750      4.16263     0.954791  0.000726109 -8.53934e-06 
         750      4.25169     0.960066   0.00073631 -8.50822e-06 
         750      4.34166     0.964876  0.000745813 -8.47659e-06 
         750      4.43258     0.969245  0.000754626 -8.44442e-06 
         750      4.52447     0.973196   0.00076276 -8.41171e-06 
         750      4.61726     0.976747  0.000770221 -8.37844e-06 
         750        4.711     0.979923  0.000777032 -8.34457e-06 
         750      4.80569      0.98275  0.000783215 -8.31008e-06 
         750      4.90135     0.985253  0.000788798 -8.27495e-06 
         750      4.99791     0.987455  0.000793807 -8.23925e-06 
         750      5.09542     0.989383  0.000798277 -8.20304e-06 
         750      5.19387     0.991059  0.000802238 -8.16523e-06 
         750       5.2933      0.99251  0.000805731 -8.12715e-06 
         750      5.39364     0.993757   0.00080879 -8.08903e-06 
         750      5.49491     0.994822  0.000811454 -8.05074e-06 
         750      5.59713     0.995726  0.000813759 -8.01221e-06 
         750      5.70033     0.996489  0.000815741 -7.97337e-06 
         750      5.80443     0.997128  0.000817433 -7.93419e-06 
         750      5.90948      0.99766  0.000818867 -7.89464e-06 
         750      6.01551       0.9981  0.000820076 -7.85469e-06 
         750      6.12244     0.998461  0.000821085 -7.81436e-06 
         750      6.23031     0.998755  0.000821923 -7.77366e-06 
         750      6.33912     0.998994  0.000822612 -7.73258e-06 
         750      6.44892     0.999185  0.000823175 -7.69113e-06 
         750      6.55962     0.999338  0.000823629 -7.64934e-06 
         750      6.67126     0.999459  0.000823994 -7.60721e-06 
         750      6.78384     0.999554  0.000824285 -7.56473e-06 
         750      6.89741     0.999627  0.000824515 -7.52189e-06 
         750      7.01187     0.999684  0.000824696 -7.47872e-06 
         750      7.12728     0.999728   0.00082484 -7.43519e-06 
         750      7.24363     0.999761  0.000824954 -7.39132e-06 
         750      7.36097     0.999787  0.000825043 -7.34713e-06 
         750       7.4792     0.999806  0.000825109 -7.30271e-06 
         750      7.59838      0.99982  0.000825145 -7.25819e-06 
         750      7.71854     0.999831   0.00082519 -7.21126e-06 
         750       7.8396     0.999839   0.00082522 -7.16373e-06 
         750      7.96161     0.999845  0.000825239   -7.116e-06 
         750      8.08455     0.999849  0.000825251 -7.06824e-06 
         750      8.20849     0.999852  0.000825261 -7.02051e-06 
         750      8.33332     0.999854  0.000825268 -6.97286e-06 
         750      8.45909     0.999856  0.000825274 -6.92523e-06 
         750       8.5858     0.999858   0.00082528 -6.87755e-06 
         750      8.71351     0.999859  0.000825286 -6.82971e-06 
         750       8.8421      0.99986  0.000825291 -6.78164e-06 
         750      8.97164     0.999861  0.000825295 -6.73324e-06 
         750      9.10212     0.999862  0.000825299 -6.68441e-06 
         750       9.2336     0.999863  0.000825301 -6.63507e-06 
         750      9.36596     0.999863  0.000825303 -6.58522e-06 
         750      9.49927     0.999864  0.000825303 -6.53481e-06 
         750      9.63352     0.999865  0.000825303 -6.48384e-06 
         750      9.76877     0.999865  0.000825303 -6.43232e-06 
         750       9.9049     0.999866  0.000825302 -6.38032e-06 
         750       10.042     0.999866  0.000825301 -6.32786e-06 
         750      10.1801     0.999867  0.000825302 -6.27499e-06 
         750       10.319     0.999868  0.000825304 -6.22178e-06 
         750      10.4589     0.999869  0.000825309 -6.16828e-06 
         750      10.5998     0.999869  0.000825318 -6.11451e-06 
         750      10.7416      0.99987  0.000825325 -6.06031e-06 
         750      10.8843     0.999871  0.000825322 -6.00552e-06 
         750       11.028     0.999872  0.000825321 -5.95024e-06 
         750      11.1726     0.999872  0.000825321 -5.89436e-06 
         750      11.3182     0.999873  0.000825321 -5.83783e-06 
         750      11.4647     0.999874   0.00082532 -5.78075e-06 
         750      11.6122     0.999874  0.000825319  -5.7233e-06 
         750      11.7605     0.999875  0.000825321  -5.6658e-06 
         750      11.9099     0.999876  0.000825327 -5.60875e-06 
         750      12.0602     0.999877  0.000825345  -5.5529e-06 
         750      12.2114     0.999878  0.000825328 -5.49406e-06 
         750      12.3636     0.999878  0.000825327 -5.43656e-06 
         750      12.5167     0.999879  0.000825335  -5.3803e-06 
         750      12.6707      0.99988  0.000825339 -5.32409e-06 
         750      12.8257     0.999881  0.000825337 -5.26678e-06 
         750      12.9817     0.999881  0.000825327  -5.2072e-06 
         750      13.1386     0.999882  0.000825333 -5.14986e-06 
         750      13.2964     0.999883  0.000825339 -5.09089e-06 
         750      13.4551     0.999884  0.000825342 -5.03051e-06 
         750      13.6149     0.999885  0.000825345 -4.96899e-06 
         750      13.7755     0.999886  0.000825347 -4.90667e-06 
         750      13.9371     0.999886  0.000825348 -4.84382e-06 
         750      14.0996     0.999887   0.00082535 -4.78069e-06 
         750      14.2631     0.999888  0.000825351 -4.71744e-06 
         750      14.4275     0.999889  0.000825352 -4.65424e-06 
         750      14.5928      0.99989  0.000825354 -4.59111e-06 
         750      14.7592     0.999891  0.000825356 -4.52801e-06 
         750      14.9264     0.999891  0.000825357 -4.46492e-06 
         750      15.0946     0.999892  0.000825359 -4.40171e-06 
         750      15.2637     0.999893  0.000825362 -4.33824e-06 
         750      15.4338     0.999894  0.000825364 -4.27439e-06 
         750      15.6048     0.999895  0.000825366 -4.21008e-06 
         750      15.7767     0.999896  0.000825369 -4.14522e-06 
         750      15.9496     0.999897   0.00082537 -4.07976e-06 
         750      16.1235     0.999898  0.000825371 -4.01365e-06 
         750      16.2982     0.999899  0.000825371 -3.94692e-06 
         750      16.4739       0.9999   0.00082537  -3.8795e-06 
         750      16.6506     0.999901   0.00082537 -3.81119e-06 
         750      16.8282     0.999902  0.000825375 -3.74159e-06 
         750      17.0068     0.999902  0.000825379 -3.67297e-06 
         750      17.1862     0.999903  0.000825375 -3.60648e-06 
         750      17.3667     0.999904  0.000825375  -3.5385e-06 
         750      17.5481     0.999905  0.000825378 -3.46956e-06 
         750      17.7304     0.999906  0.000825383 -3.39997e-06 
         750      17.9136     0.999907  0.000825386 -3.32993e-06 
         750      18.0979     0.999908  0.000825389 -3.25956e-06 
         750       18.283     0.999909  0.000825391 -3.18901e-06 
         750      18.4691      0.99991  0.000825391 -3.11829e-06 
         750      18.6561     0.999911   0.00082539 -3.04744e-06 
         750      18.8441     0.999912   0.00082539 -2.97642e-06 
         750       19.033     0.999913   0.00082539 -2.90525e-06 
         750      19.2228     0.999914   0.00082539 -2.83381e-06 
         750      19.4136     0.999915  0.000825391 -2.76199e-06 
         750      19.6054     0.999916  0.000825391 -2.68956e-06 
         750       19.798     0.999917  0.000825391  -2.6163e-06 
         750      19.9917     0.999918  0.000825393 -2.54185e-06 
         750      20.1862     0.999919  0.000825403 -2.46577e-06 
         750      20.3818      0.99992  0.000825406 -2.39095e-06 
         750      20.5782     0.999921  0.000825405 -2.31643e-06 
         750      20.7756     0.999923  0.000825408 -2.24111e-06 
         750       20.974     0.999924   0.00082541 -2.16536e-06 
         750      21.1732     0.999925  0.000825413 -2.08946e-06 
         750      21.3734     0.999926  0.000825414 -2.01348e-06 
         750      21.5745     0.999927  0.000825414  -1.9374e-06 
         750      21.7767     0.999928  0.000825413 -1.86111e-06 
         750      21.9797     0.999929  0.000825411 -1.78454e-06 
         750      22.1837      0.99993   0.00082541 -1.70751e-06 
         750      22.3886     0.999931   0.00082541 -1.62988e-06 
         750      22.5945     0.999932  0.000825411 -1.55147e-06 
         750      22.8013     0.999933  0.000825414 -1.47228e-06 
         750      23.0091     0.999935  0.000825416 -1.39222e-06 
         750      23.2177     0.999936  0.000825417  -1.3113e-06 
         750      23.4274     0.999937  0.000825413 -1.22955e-06 
         750       23.638     0.999938  0.000825413 -1.14971e-06 
         750      23.8495     0.999939  0.000825415 -1.06996e-06 
         750       24.062      0.99994  0.000825417 -9.89306e-07 
         750      24.2754     0.999941  0.000825417 -9.08018e-07 
         750      24.4897     0.999942  0.000825419 -8.26189e-07 
         750       24.705     0.999943  0.000825421 -7.43895e-07 
         750      24.9213     0.999945  0.000825423 -6.61148e-07 
         750      25.1385     0.999946  0.000825426 -5.78041e-07 
         750      25.3566     0.999947  0.000825429 -4.94562e-07 
         750      25.5756     0.999948  0.000825432 -4.10735e-07 
         750      25.7957     0.999949  0.000825434 -3.26553e-07 
         750      26.0166      0.99995  0.000825436 -2.42118e-07 
         750      26.2385     0.999952  0.000825437 -1.57437e-07 
         750      26.4613     0.999953  0.000825437 -7.25496e-08 
         750      26.6851     0.999954  0.000825436   1.2541e-08 
         750      26.9098     0.999955  0.000825434  9.77419e-08 
         750      27.1354     0.999956  0.000825432  1.83078e-07 
         750      27.3621     0.999957  0.000825431  2.68599e-07 
         750      27.5896     0.999959  0.000825429  3.54278e-07 
         750      27.8181      0.99996  0.000825428  4.40219e-07 
         750      28.0475     0.999961  0.000825428  5.26523e-07 
         750      28.2779     0.999962  0.000825429  6.13341e-07 
         750      28.5092     0.999963  0.000825431  7.00731e-07 
         750      28.7414     0.999965  0.000825433  7.88839e-07 
         750      28.9746     0.999966  0.000825436  8.77734e-07 
         750      29.2088     0.999967  0.000825437  9.67434e-07 
         750      29.4439     0.999968  0.000825437  1.05771e-06 
         750      29.6799     0.999969  0.000825434  1.14823e-06 
         750      29.9168      0.99997  0.000825427  1.23833e-06 
         750      30.1548     0.999972   0.00082543  1.32775e-06 
         750      30.3936     0.999973  0.000825431  1.41916e-06 
         750      30.6334     0.999974   0.00082543  1.51216e-06 
         750      30.8742     0.999976  0.000825429  1.60624e-06 
         750      31.1158     0.999977  0.000825437  1.70058e-06 
         750      31.3584     0.999978  0.000825467  1.79427e-06 
         750       31.602     0.999979  0.000825433  1.88745e-06 
         750      31.8465     0.999981  0.000825427  1.98066e-06 
         750      32.0919     0.999982  0.000825441  2.07345e-06 
         750      32.3383     0.999983  0.000825455  2.16569e-06 
         750      32.5856     0.999984  0.000825456  2.25608e-06 
         750       32.834     0.999985  0.000825442  2.34606e-06 
         750      33.0831     0.999986  0.000825433  2.43864e-06 
         750      33.3333     0.999988   0.00082543  2.53327e-06 
         750      33.5843     0.999989  0.000825429  2.62937e-06 
         750      33.8364      0.99999   0.00082543  2.72646e-06 
         750      34.0894     0.999991  0.000825432  2.82403e-06 
         750      34.3433     0.999993  0.000825435  2.92177e-06 
         750      34.5981     0.999994  0.000825438  3.01947e-06 
         750       34.854     0.999995   0.00082544  3.11705e-06 
         750      35.1107     0.999996   0.00082544  3.21444e-06 
         750      35.3684     0.999998  0.000825439  3.31174e-06 
         750      35.6271     0.999999  0.000825436  3.40914e-06 
         750      35.8867            1  0.000825432  3.50673e-06 
         750      36.1472            1  0.000825428  3.60475e-06 
         750      36.4086            1  0.000825425  3.70335e-06 
         750      36.6711            1  0.000825423  3.80269e-06 
         750      36.9344      1.00001  0.000825424  3.90273e-06 
         750      37.1987      1.00001  0.000825427   4.0035e-06 
         750      37.4639      1.00001  0.000825432  4.10488e-06 
         750      37.7301      1.00001  0.000825437  4.20677e-06 
         750      37.9972      1.00001   0.00082544  4.30889e-06 
         750      38.2652      1.00001   0.00082544  4.41115e-06 
         750      38.5342      1.00001  0.000825433  4.51353e-06 
         750      38.8042      1.00001  0.000825422  4.61631e-06 
         750      39.0751      1.00002  0.000825409  4.72006e-06 
         750      39.3469      1.00002  0.000825406  4.82608e-06 
         750      39.6197      1.00002  0.000825428  4.93537e-06 
         750      39.8934      1.00002    0.0008254  5.03477e-06 
         750       40.168      1.00002  0.000825403  5.13692e-06 
         750      40.4436      1.00002  0.000825417  5.24075e-06 
         750      40.7202      1.00002  0.000825433  5.34592e-06 
         750      40.9977      1.00002  0.000825441  5.45218e-06 
         750      41.2761      1.00003   0.00082544  5.55937e-06 
         750      41.5554      1.00003  0.000825428  5.66711e-06 
         750      41.8358      1.00003   0.00082541  5.77483e-06 
         750       42.117      1.00003  0.000825392  5.88179e-06 
         750      42.3992      1.00003  0.000825379  5.98747e-06 
         750      42.6823      1.00003   0.00082538  6.09186e-06 
         750      42.9664      1.00003  0.000825393  6.19602e-06 
         750      43.2514      1.00003  0.000825409  6.30249e-06 
         750      43.5373      1.00004    0.0008254  6.41636e-06 
         750      43.8243      1.00004   0.00082537  6.53401e-06 
         750      44.1121      1.00004  0.000825405  6.63684e-06 
         750      44.4009      1.00004  0.000825412  6.74437e-06 
         750      44.6906      1.00004  0.000825407  6.85491e-06 
         750      44.9813      1.00004  0.000825395  6.96716e-06 
         750      45.2729      1.00004  0.000825384  7.08008e-06 
         750      45.5654      1.00004  0.000825375   7.1931e-06 
         750      45.8589      1.00004   0.00082537  7.30594e-06 
         750      46.1534      1.00005  0.000825369  7.41866e-06 
         750      46.4488      1.00005  0.000825371  7.53138e-06 
         750      46.7451      1.00005  0.000825374  7.64452e-06 
         750      47.0423      1.00005  0.000825378  7.75847e-06 
         750      47.3406      1.00005   0.00082538  7.87353e-06 
         750      47.6397      1.00005  0.000825379   7.9896e-06 
         750      47.9398      1.00005  0.000825374  8.10623e-06 
         750      48.2409      1.00005  0.000825364  8.22229e-06 
         750      48.5428      1.00006  0.000825354  8.33553e-06 
         750      48.8457      1.00006   0.00082535  8.45241e-06 
         750      49.1496      1.00006  0.000825346  8.57232e-06 
         750      49.4545      1.00006  0.000825341  8.68851e-06 
         750      49.7602      1.00006  0.000825335   8.8024e-06 
         750      50.0668      1.00006  0.000825329  8.91517e-06 
         750      50.3744      1.00006  0.000825325  9.02768e-06 
         750      50.6831      1.00006  0.000825322  9.14057e-06 
         750      50.9926      1.00006  0.000825319  9.25417e-06 
         750       51.303      1.00007  0.000825318  9.36879e-06 
         750      51.6144      1.00007  0.000825318  9.48456e-06 
         750      51.9268      1.00007  0.000825318  9.60158e-06 
         750        52.24      1.00007  0.000825318  9.71974e-06 
         750      52.5542      1.00007  0.000825318  9.83904e-06 
         750      52.8694      1.00007  0.000825316  9.95939e-06 
         750      53.1856      1.00007  0.000825314  1.00807e-05 
         750      53.5026      1.00007  0.000825309  1.02028e-05 
         750      53.8205      1.00008  0.000825304  1.03257e-05 
         750      54.1396      1.00008  0.000825297  1.04491e-05 
         750      54.4594      1.00008  0.000825288  1.05728e-05 
         750      54.7802      1.00008  0.000825279  1.06969e-05 
         750      55.1019      1.00008   0.00082527   1.0821e-05 
         750      55.4247      1.00008  0.000825261  1.09452e-05 
         750      55.7483      1.00008  0.000825252  1.10691e-05 
         750      56.0729      1.00008  0.000825245  1.11925e-05 
         750      56.3984      1.00008  0.000825239  1.13155e-05 
         750       56.725      1.00009  0.000825236  1.14378e-05 
         750      57.0523      1.00009  0.000825234  1.15593e-05 
         750      57.3807      1.00009  0.000825235  1.16802e-05 
         750      57.7099      1.00009  0.000825239  1.18004e-05 
         750      58.0403      1.00009  0.000825246  1.19205e-05 
         750      58.3714      1.00009  0.000825257  1.20409e-05 
         750      58.7035      1.00009  0.000825274  1.21625e-05 
         750      59.0367      1.00009  0.000825285  1.22908e-05 
         750      59.3707      1.00009  0.000825263  1.24276e-05 
         750      59.7056      1.00009  0.000825231  1.25618e-05 
         750      60.0414      1.00009  0.000825189  1.26945e-05 
         750      60.3784       1.0001   0.00082515  1.28269e-05 
         750      60.7161       1.0001  0.000825132  1.29595e-05 
         750      61.0548       1.0001  0.000825171  1.30933e-05 
         750      61.3944       1.0001  0.000825255  1.32222e-05 
         750      61.7351       1.0001  0.000825182  1.33337e-05 
         750      62.0767       1.0001  0.000825143  1.34512e-05 
         750      62.4191       1.0001  0.000825127  1.35673e-05 
         750      62.7625      1.00011  0.000825123  1.36742e-05 
         750       63.107      1.00011   0.00082513  1.38204e-05 
         750      63.4523      1.00011  0.000825145  1.39831e-05 
         750      63.7985      1.00011  0.000825157   1.4133e-05 
         750      64.1458      1.00011  0.000825162  1.42742e-05 
         750      64.4939      1.00011  0.000825159  1.44097e-05 
         750       64.843      1.00011  0.000825151   1.4542e-05 
         750      65.1929      1.00011  0.000825138  1.46727e-05 
         750       65.544      1.00011  0.000825123  1.48031e-05 
         750      65.8959      1.00011  0.000825109  1.49338e-05 
         750      66.2487      1.00011  0.000825096  1.50654e-05 
         750      66.6025      1.00012  0.000825085   1.5198e-05 
         750      66.9573      1.00012  0.000825077  1.53317e-05 
         750       67.313      1.00012  0.000825072  1.54661e-05 
         750      67.6695      1.00012  0.000825068  1.56011e-05 
         750      68.0271      1.00012  0.000825064  1.57365e-05 
         750      68.3857      1.00012   0.00082506  1.58721e-05 
         750      68.7451      1.00012  0.000825054  1.60076e-05 
         750      69.1055      1.00013  0.000825047  1.61428e-05 
         750      69.4669      1.00013  0.000825036  1.62778e-05 
         750      69.8291      1.00013  0.000825023  1.64124e-05 
         750      70.1923      1.00013  0.000825007  1.65468e-05 
         750      70.5564      1.00013  0.000824991  1.66812e-05 
         750      70.9217      1.00013  0.000824974  1.68158e-05 
         750      71.2877      1.00013  0.000824958  1.69508e-05 
         750      71.6546      1.00013  0.000824945  1.70865e-05 
         750      72.0225      1.00013  0.000824936  1.72233e-05 
         750      72.3915      1.00013  0.000824932  1.73615e-05 
         750      72.7613      1.00013  0.000824932  1.75013e-05 
         750       73.132      1.00013  0.000824937   1.7643e-05 
         750      73.5036      1.00013  0.000824944  1.77868e-05 
         750      73.8764      1.00011  0.000824953  1.79327e-05 
         750      74.2499      1.00009  0.000824961  1.80807e-05 
         750      74.6244      1.00006  0.000824968  1.82305e-05 
         750           75            1  0.000824974  1.83821e-05 
