Variables = x, y, u, v, p

Zone, I=400, F=POINT
         100            0            0            0  -5.4859e-05 
         100     0.000471  0.000237512  6.99985e-11 -5.48587e-05 
         100     0.001884  0.000950048     1.12e-09 -5.48578e-05 
         100     0.004239   0.00213761  5.67014e-09 -5.48563e-05 
         100     0.007537   0.00380071  1.79258e-08 -5.48542e-05 
         100     0.011776   0.00593835  4.37616e-08 -5.48515e-05 
         100     0.016958   0.00855154  9.07546e-08 -5.48483e-05 
         100     0.023081    0.0116393  1.68133e-07 -5.48444e-05 
         100      0.03015    0.0152041  2.86911e-07 -5.48399e-05 
         100     0.038157     0.019242  4.59572e-07 -5.48349e-05 
         100     0.047107    0.0237555  7.00506e-07 -5.48292e-05 
         100     0.056999    0.0287441  1.02569e-06  -5.4823e-05 
         100     0.067837    0.0342098  1.45296e-06 -5.48161e-05 
         100     0.079614     0.040149  2.00144e-06 -5.48087e-05 
         100     0.092332    0.0465628  2.69224e-06 -5.48006e-05 
         100     0.105992    0.0534515  3.54813e-06  -5.4792e-05 
         100       0.1206    0.0608181  4.59402e-06 -5.47827e-05 
         100     0.136145    0.0686568  5.85522e-06 -5.47728e-05 
         100     0.152631    0.0769695  7.35977e-06 -5.47624e-05 
         100     0.170067    0.0857603  9.13801e-06 -5.47513e-05 
         100     0.188438    0.0950212  1.12195e-05 -5.47396e-05 
         100     0.207751     0.104755  1.36376e-05 -5.47273e-05 
         100     0.228006     0.114962  1.64265e-05 -5.47143e-05 
         100     0.249212     0.125644  1.96234e-05 -5.47007e-05 
         100     0.271351     0.136792  2.32628e-05 -5.46865e-05 
         100     0.294433     0.148409  2.73848e-05 -5.46716e-05 
         100     0.318456     0.160492  3.20289e-05  -5.4656e-05 
         100     0.343432     0.173045  3.72387e-05 -5.46397e-05 
         100     0.369339     0.186054  4.30517e-05 -5.46227e-05 
         100     0.396189     0.199522  4.95132e-05 -5.46049e-05 
         100     0.423981     0.213444  5.66668e-05 -5.45863e-05 
         100     0.452726     0.227821  6.45593e-05 -5.45669e-05 
         100     0.482403     0.242637  7.32294e-05 -5.45466e-05 
         100     0.513021      0.25789  8.27233e-05 -5.45254e-05 
         100     0.544594     0.273579  9.30892e-05 -5.45032e-05 
         100     0.577096     0.289682  0.000104361   -5.448e-05 
         100     0.610541     0.306196  0.000116585 -5.44556e-05 
         100     0.644927     0.323109  0.000129799   -5.443e-05 
         100      0.68027     0.340415  0.000144048  -5.4403e-05 
         100     0.716541     0.358085  0.000159354 -5.43747e-05 
         100     0.753754      0.37611  0.000175753 -5.43447e-05 
         100     0.791909     0.394472  0.000193274 -5.43131e-05 
         100     0.831022     0.413156  0.000211947 -5.42796e-05 
         100     0.871061     0.432125  0.000231775 -5.42441e-05 
         100     0.912043     0.451362  0.000252777 -5.42065e-05 
         100     0.953966     0.470838  0.000274961 -5.41665e-05 
         100     0.996849     0.490533  0.000298338  -5.4124e-05 
         100      1.04066     0.510397  0.000322881 -5.40787e-05 
         100      1.08541     0.530404  0.000348587 -5.40305e-05 
         100      1.13112     0.550525  0.000375447 -5.39792e-05 
         100      1.17775     0.570703  0.000403411 -5.39245e-05 
         100      1.22533     0.590904  0.000432451 -5.38662e-05 
         100      1.27384     0.611083  0.000462523 -5.38041e-05 
         100      1.32333       0.6312  0.000493585 -5.37379e-05 
         100      1.37373     0.651191   0.00052555 -5.36675e-05 
         100      1.42507     0.671011  0.000558353 -5.35926e-05 
         100      1.47736     0.690608  0.000591912 -5.35131e-05 
         100      1.53061     0.709936  0.000626143 -5.34285e-05 
         100      1.58478     0.728922   0.00066091 -5.33388e-05 
         100      1.63989     0.747519  0.000696106 -5.32439e-05 
         100      1.69595     0.765672  0.000731604 -5.31435e-05 
         100      1.75297     0.783332  0.000767276 -5.30375e-05 
         100      1.81091     0.800434  0.000802944 -5.29257e-05 
         100      1.86979     0.816933   0.00083846 -5.28079e-05 
         100      1.92964     0.832788  0.000873671 -5.26841e-05 
         100       1.9904     0.847942  0.000908377 -5.25543e-05 
         100      2.05211     0.862363  0.000942422 -5.24183e-05 
         100      2.11476     0.876019  0.000975639 -5.22761e-05 
         100      2.17838     0.888886   0.00100788 -5.21277e-05 
         100      2.24291     0.900936   0.00103895 -5.19733e-05 
         100      2.30839     0.912161   0.00106875 -5.18127e-05 
         100       2.3748     0.922554   0.00109713 -5.16462e-05 
         100      2.44219     0.932123   0.00112399 -5.14738e-05 
         100      2.51049      0.94087   0.00114923 -5.12957e-05 
         100      2.57974     0.948815   0.00117279 -5.11121e-05 
         100      2.64993     0.955981   0.00119462  -5.0923e-05 
         100      2.72108     0.962403    0.0012147 -5.07286e-05 
         100      2.79315     0.968109   0.00123302 -5.05292e-05 
         100      2.86617     0.973144   0.00124961 -5.03249e-05 
         100      2.94012     0.977551    0.0012645  -5.0116e-05 
         100      3.01505     0.981378   0.00127776 -4.99025e-05 
         100      3.09089     0.984672   0.00128947 -4.96848e-05 
         100      3.16767     0.987484   0.00129972 -4.94629e-05 
         100      3.24542     0.989863   0.00130861  -4.9237e-05 
         100      3.32409     0.991856   0.00131625 -4.90074e-05 
         100       3.4037     0.993512   0.00132275  -4.8774e-05 
         100      3.48425     0.994873   0.00132823 -4.85371e-05 
         100      3.56577     0.995981    0.0013328 -4.82966e-05 
         100       3.6482     0.996873   0.00133658 -4.80528e-05 
         100      3.73158     0.997585   0.00133967 -4.78057e-05 
         100       3.8159     0.998147   0.00134217 -4.75555e-05 
         100      3.90119     0.998585   0.00134418  -4.7302e-05 
         100       3.9874     0.998923   0.00134578 -4.70452e-05 
         100      4.07454     0.999181   0.00134703 -4.67855e-05 
         100      4.16263     0.999375   0.00134801 -4.65241e-05 
         100      4.25169      0.99952   0.00134877 -4.62602e-05 
         100      4.34166     0.999626   0.00134935 -4.59917e-05 
         100      4.43258     0.999703    0.0013498 -4.57206e-05 
         100      4.52447     0.999759   0.00135014 -4.54466e-05 
         100      4.61726     0.999798    0.0013504 -4.51696e-05 
         100        4.711     0.999825    0.0013506 -4.48894e-05 
         100      4.80569     0.999844   0.00135076 -4.46066e-05 
         100      4.90135     0.999857   0.00135088 -4.43206e-05 
         100      4.99791     0.999866   0.00135099 -4.40326e-05 
         100      5.09542     0.999872   0.00135108  -4.3741e-05 
         100      5.19387     0.999876   0.00135115 -4.34465e-05 
         100       5.2933     0.999878   0.00135122 -4.31493e-05 
         100      5.39364      0.99988   0.00135129 -4.28473e-05 
         100      5.49491     0.999881   0.00135135 -4.25434e-05 
         100      5.59713     0.999882   0.00135141 -4.22382e-05 
         100      5.70033     0.999882   0.00135147 -4.19284e-05 
         100      5.80443     0.999882   0.00135153 -4.16162e-05 
         100      5.90948     0.999883   0.00135158 -4.13007e-05 
         100      6.01551     0.999883   0.00135164 -4.09839e-05 
         100      6.12244     0.999883   0.00135169 -4.06629e-05 
         100      6.23031     0.999884   0.00135175 -4.03381e-05 
         100      6.33912     0.999884    0.0013518 -4.00109e-05 
         100      6.44892     0.999884   0.00135186 -3.96819e-05 
         100      6.55962     0.999884   0.00135191 -3.93507e-05 
         100      6.67126     0.999885   0.00135196 -3.90153e-05 
         100      6.78384     0.999885   0.00135201 -3.86753e-05 
         100      6.89741     0.999885   0.00135207 -3.83335e-05 
         100      7.01187     0.999885   0.00135212 -3.79889e-05 
         100      7.12728     0.999885   0.00135217  -3.7643e-05 
         100      7.24363     0.999886   0.00135222  -3.7296e-05 
         100      7.36097     0.999886   0.00135228 -3.69448e-05 
         100       7.4792     0.999886   0.00135233 -3.65904e-05 
         100      7.59838     0.999886   0.00135238   -3.623e-05 
         100      7.71854     0.999887   0.00135243 -3.58688e-05 
         100       7.8396     0.999887   0.00135247 -3.55054e-05 
         100      7.96161     0.999887   0.00135252 -3.51396e-05 
         100      8.08455     0.999888   0.00135257 -3.47708e-05 
         100      8.20849     0.999888   0.00135262 -3.43985e-05 
         100      8.33332     0.999888   0.00135267 -3.40231e-05 
         100      8.45909     0.999888   0.00135272 -3.36446e-05 
         100       8.5858     0.999889   0.00135276 -3.32633e-05 
         100      8.71351     0.999889   0.00135281 -3.28792e-05 
         100       8.8421     0.999889   0.00135286 -3.24925e-05 
         100      8.97164      0.99989    0.0013529 -3.21032e-05 
         100      9.10212      0.99989   0.00135294 -3.17108e-05 
         100       9.2336      0.99989   0.00135298 -3.13141e-05 
         100      9.36596      0.99989   0.00135302 -3.09144e-05 
         100      9.49927     0.999891   0.00135306 -3.05117e-05 
         100      9.63352     0.999891   0.00135311 -3.01068e-05 
         100      9.76877     0.999891   0.00135315 -2.97001e-05 
         100       9.9049     0.999892   0.00135319 -2.92919e-05 
         100       10.042     0.999892   0.00135323  -2.8882e-05 
         100      10.1801     0.999892   0.00135326 -2.84695e-05 
         100       10.319     0.999893   0.00135329 -2.80539e-05 
         100      10.4589     0.999893   0.00135332 -2.76343e-05 
         100      10.5998     0.999893   0.00135335 -2.72106e-05 
         100      10.7416     0.999894    0.0013534 -2.67825e-05 
         100      10.8843     0.999894   0.00135344 -2.63512e-05 
         100       11.028     0.999894   0.00135346 -2.59168e-05 
         100      11.1726     0.999895   0.00135347 -2.54826e-05 
         100      11.3182     0.999895   0.00135348 -2.50621e-05 
         100      11.4647     0.999896   0.00135353 -2.46167e-05 
         100      11.6122     0.999896   0.00135359 -2.41692e-05 
         100      11.7605     0.999896   0.00135362 -2.37225e-05 
         100      11.9099     0.999897   0.00135364 -2.32751e-05 
         100      12.0602     0.999897   0.00135365 -2.28261e-05 
         100      12.2114     0.999897   0.00135366 -2.23745e-05 
         100      12.3636     0.999898   0.00135368 -2.19197e-05 
         100      12.5167     0.999898   0.00135372 -2.14623e-05 
         100      12.6707     0.999899   0.00135375 -2.10023e-05 
         100      12.8257     0.999899   0.00135377 -2.05397e-05 
         100      12.9817     0.999899   0.00135378 -2.00742e-05 
         100      13.1386       0.9999   0.00135377 -1.96057e-05 
         100      13.2964       0.9999   0.00135379 -1.91336e-05 
         100      13.4551     0.999901   0.00135382 -1.86586e-05 
         100      13.6149     0.999901    0.0013538 -1.81822e-05 
         100      13.7755     0.999901   0.00135384 -1.76993e-05 
         100      13.9371     0.999902   0.00135383 -1.72208e-05 
         100      14.0996     0.999902   0.00135384 -1.67382e-05 
         100      14.2631     0.999903   0.00135386 -1.62499e-05 
         100      14.4275     0.999903   0.00135387 -1.57578e-05 
         100      14.5928     0.999903   0.00135387 -1.52642e-05 
         100      14.7592     0.999904   0.00135386   -1.477e-05 
         100      14.9264     0.999904   0.00135386 -1.42756e-05 
         100      15.0946     0.999905   0.00135387 -1.37796e-05 
         100      15.2637     0.999905   0.00135387 -1.32803e-05 
         100      15.4338     0.999906   0.00135387 -1.27766e-05 
         100      15.6048     0.999906   0.00135385 -1.22694e-05 
         100      15.7767     0.999907   0.00135384 -1.17609e-05 
         100      15.9496     0.999907   0.00135384 -1.12543e-05 
         100      16.1235     0.999907   0.00135383 -1.07466e-05 
         100      16.2982     0.999908   0.00135378 -1.02177e-05 
         100      16.4739     0.999909   0.00135379 -9.71087e-06 
         100      16.6506     0.999909   0.00135378 -9.18699e-06 
         100      16.8282     0.999909   0.00135375 -8.65534e-06 
         100      17.0068      0.99991   0.00135373 -8.12345e-06 
         100      17.1862      0.99991   0.00135371 -7.59422e-06 
         100      17.3667     0.999911    0.0013537 -7.06777e-06 
         100      17.5481     0.999912   0.00135369  -6.5432e-06 
         100      17.7304     0.999912   0.00135368 -6.01817e-06 
         100      17.9136     0.999913   0.00135366 -5.49043e-06 
         100      18.0979     0.999913   0.00135362 -4.95795e-06 
         100       18.283     0.999914   0.00135358 -4.42003e-06 
         100      18.4691     0.999914   0.00135353 -3.87619e-06 
         100      18.6561     0.999915   0.00135347 -3.32706e-06 
         100      18.8441     0.999915   0.00135343 -2.77374e-06 
         100       19.033     0.999916   0.00135339 -2.21855e-06 
         100      19.2228     0.999916   0.00135336 -1.66329e-06 
         100      19.4136     0.999917   0.00135333 -1.10981e-06 
         100      19.6054     0.999917    0.0013533 -5.59217e-07 
         100       19.798     0.999918   0.00135327 -8.45404e-09 
         100      19.9917     0.999918   0.00135322  5.41614e-07 
         100      20.1862     0.999919   0.00135314  1.09411e-06 
         100      20.3818     0.999919   0.00135306  1.65321e-06 
         100      20.5782      0.99992     0.001353  2.22148e-06 
         100      20.7756     0.999921   0.00135297  2.79864e-06 
         100       20.974     0.999921   0.00135294  3.37717e-06 
         100      21.1732     0.999922   0.00135281  3.93641e-06 
         100      21.3734     0.999922    0.0013528  4.49685e-06 
         100      21.5745     0.999923   0.00135268  5.08372e-06 
         100      21.7767     0.999924   0.00135265  5.68045e-06 
         100      21.9797     0.999924   0.00135261  6.26754e-06 
         100      22.1837     0.999925   0.00135255  6.84951e-06 
         100      22.3886     0.999925   0.00135246  7.42937e-06 
         100      22.5945     0.999926   0.00135236  8.00938e-06 
         100      22.8013     0.999926   0.00135226  8.59037e-06 
         100      23.0091     0.999927   0.00135218  9.17337e-06 
         100      23.2177     0.999928   0.00135211  9.75878e-06 
         100      23.4274     0.999928   0.00135204   1.0347e-05 
         100       23.638     0.999929   0.00135197  1.09376e-05 
         100      23.8495      0.99993   0.00135188  1.15308e-05 
         100       24.062      0.99993   0.00135178  1.21265e-05 
         100      24.2754     0.999931   0.00135167  1.27243e-05 
         100      24.4897     0.999931   0.00135155  1.33239e-05 
         100       24.705     0.999932   0.00135143  1.39253e-05 
         100      24.9213     0.999932   0.00135132  1.45281e-05 
         100      25.1385     0.999933   0.00135124  1.51316e-05 
         100      25.3566     0.999934   0.00135117  1.57356e-05 
         100      25.5756     0.999934    0.0013511  1.63397e-05 
         100      25.7957     0.999935   0.00135101  1.69444e-05 
         100      26.0166     0.999936   0.00135087  1.75494e-05 
         100      26.2385     0.999936   0.00135069  1.81562e-05 
         100      26.4613     0.999937   0.00135054  1.87673e-05 
         100      26.6851     0.999938   0.00135063  1.93871e-05 
         100      26.9098     0.999938   0.00135031  1.99916e-05 
         100      27.1354     0.999939   0.00135021  2.06057e-05 
         100      27.3621      0.99994   0.00135013  2.12241e-05 
         100      27.5896      0.99994   0.00135002  2.18425e-05 
         100      27.8181     0.999941   0.00134986  2.24595e-05 
         100      28.0475     0.999941   0.00134968  2.30751e-05 
         100      28.2779     0.999942   0.00134951  2.36907e-05 
         100      28.5092     0.999943   0.00134937  2.43077e-05 
         100      28.7414     0.999944   0.00134925  2.49284e-05 
         100      28.9746     0.999944   0.00134915  2.55543e-05 
         100      29.2088     0.999945   0.00134905  2.61864e-05 
         100      29.4439     0.999945   0.00134893  2.68234e-05 
         100      29.6799     0.999946   0.00134876   2.7463e-05 
         100      29.9168     0.999947   0.00134856  2.81004e-05 
         100      30.1548     0.999947   0.00134836  2.87288e-05 
         100      30.3936     0.999948   0.00134821  2.93385e-05 
         100      30.6334     0.999949   0.00134805  2.99579e-05 
         100      30.8742      0.99995   0.00134781  3.06038e-05 
         100      31.1158      0.99995   0.00134766  3.12315e-05 
         100      31.3584     0.999951   0.00134754  3.18524e-05 
         100       31.602     0.999952   0.00134739  3.24737e-05 
         100      31.8465     0.999952   0.00134719  3.30999e-05 
         100      32.0919     0.999953   0.00134694  3.37301e-05 
         100      32.3383     0.999954   0.00134679  3.43579e-05 
         100      32.5856     0.999955   0.00134666  3.49974e-05 
         100       32.834     0.999955   0.00134648   3.5652e-05 
         100      33.0831     0.999955   0.00134641  3.62997e-05 
         100      33.3333     0.999956   0.00134621  3.69457e-05 
         100      33.5843     0.999958   0.00134593  3.75927e-05 
         100      33.8364     0.999958   0.00134579  3.82727e-05 
         100      34.0894     0.999958   0.00134549  3.88684e-05 
         100      34.3433     0.999959   0.00134527  3.94805e-05 
         100      34.5981      0.99996   0.00134513  4.01195e-05 
         100       34.854      0.99996     0.001345  4.07743e-05 
         100      35.1107     0.999961   0.00134483  4.14329e-05 
         100      35.3684     0.999962    0.0013446  4.20858e-05 
         100      35.6271     0.999963   0.00134432  4.27271e-05 
         100      35.8867     0.999963   0.00134401  4.33549e-05 
         100      36.1472     0.999964   0.00134372  4.39725e-05 
         100      36.4086     0.999964   0.00134348  4.45876e-05 
         100      36.6711     0.999965   0.00134331  4.52108e-05 
         100      36.9344     0.999966   0.00134316  4.58523e-05 
         100      37.1987     0.999967   0.00134299  4.65189e-05 
         100      37.4639     0.999967   0.00134274  4.72075e-05 
         100      37.7301     0.999968   0.00134244  4.78985e-05 
         100      37.9972     0.999968   0.00134233  4.85451e-05 
         100      38.2652     0.999969   0.00134209  4.92039e-05 
         100      38.5342     0.999969   0.00134173    4.987e-05 
         100      38.8042     0.999971   0.00134153   5.0487e-05 
         100      39.0751     0.999972   0.00134133  5.10857e-05 
         100      39.3469     0.999973   0.00134111  5.16925e-05 
         100      39.6197     0.999974   0.00134085  5.23261e-05 
         100      39.8934     0.999975   0.00134058  5.29911e-05 
         100       40.168     0.999974   0.00134026  5.36681e-05 
         100      40.4436     0.999973   0.00133994   5.4297e-05 
         100      40.7202     0.999974   0.00133969  5.49526e-05 
         100      40.9977     0.999976   0.00133947  5.56227e-05 
         100      41.2761     0.999977   0.00133925  5.62708e-05 
         100      41.5554     0.999978   0.00133901  5.69103e-05 
         100      41.8358     0.999979   0.00133876  5.75484e-05 
         100       42.117      0.99998   0.00133849  5.81878e-05 
         100      42.3992     0.999981   0.00133821  5.88296e-05 
         100      42.6823     0.999982   0.00133793   5.9474e-05 
         100      42.9664     0.999982   0.00133764   6.0121e-05 
         100      43.2514     0.999983   0.00133735  6.07701e-05 
         100      43.5373     0.999983   0.00133707   6.1422e-05 
         100      43.8243     0.999983   0.00133679  6.20772e-05 
         100      44.1121     0.999984   0.00133651  6.27352e-05 
         100      44.4009     0.999984   0.00133623  6.33958e-05 
         100      44.6906     0.999985   0.00133594  6.40574e-05 
         100      44.9813     0.999985   0.00133565  6.47177e-05 
         100      45.2729     0.999986   0.00133535  6.53729e-05 
         100      45.5654     0.999987   0.00133505  6.60198e-05 
         100      45.8589     0.999989   0.00133476  6.66558e-05 
         100      46.1534      0.99999   0.00133448  6.72823e-05 
         100      46.4488     0.999991   0.00133421  6.79058e-05 
         100      46.7451     0.999991   0.00133395  6.85443e-05 
         100      47.0423     0.999991   0.00133365  6.91915e-05 
         100      47.3406     0.999991   0.00133326  6.97899e-05 
         100      47.6397     0.999991   0.00133283  7.04058e-05 
         100      47.9398     0.999991    0.0013324  7.10424e-05 
         100      48.2409     0.999991   0.00133204  7.17025e-05 
         100      48.5428     0.999993   0.00133179  7.23842e-05 
         100      48.8457     0.999995   0.00133163   7.3079e-05 
         100      49.1496     0.999997    0.0013314  7.37654e-05 
         100      49.4545     0.999996   0.00133067  7.44041e-05 
         100      49.7602     0.999996   0.00133042  7.50546e-05 
         100      50.0668     0.999997   0.00133033  7.57084e-05 
         100      50.3744     0.999998      0.00133  7.63404e-05 
         100      50.6831     0.999998   0.00132957  7.69609e-05 
         100      50.9926     0.999998   0.00132912  7.75768e-05 
         100       51.303     0.999999    0.0013287  7.81936e-05 
         100      51.6144     0.999999   0.00132831  7.88146e-05 
         100      51.9268            1   0.00132797  7.94416e-05 
         100        52.24            1   0.00132766  8.00742e-05 
         100      52.5542            1   0.00132738  8.07116e-05 
         100      52.8694            1    0.0013271  8.13522e-05 
         100      53.1856            1   0.00132682  8.19937e-05 
         100      53.5026            1   0.00132652  8.26329e-05 
         100      53.8205            1    0.0013262  8.32674e-05 
         100      54.1396      1.00001   0.00132585  8.38948e-05 
         100      54.4594      1.00001   0.00132546  8.45124e-05 
         100      54.7802      1.00001   0.00132505   8.5119e-05 
         100      55.1019      1.00001   0.00132461  8.57138e-05 
         100      55.4247      1.00001   0.00132415  8.62974e-05 
         100      55.7483      1.00001    0.0013237  8.68922e-05 
         100      56.0729      1.00001   0.00132338  8.75804e-05 
         100      56.3984      1.00001   0.00132303  8.82393e-05 
         100       56.725      1.00001   0.00132266  8.88755e-05 
         100      57.0523      1.00001   0.00132229  8.94958e-05 
         100      57.3807      1.00001   0.00132193  9.01072e-05 
         100      57.7099      1.00001   0.00132158  9.07161e-05 
         100      58.0403      1.00001   0.00132125  9.13278e-05 
         100      58.3714      1.00001   0.00132092  9.19453e-05 
         100      58.7035      1.00001   0.00132058  9.25702e-05 
         100      59.0367      1.00001   0.00132021  9.32025e-05 
         100      59.3707      1.00002   0.00131978  9.38401e-05 
         100      59.7056      1.00002   0.00131928  9.44815e-05 
         100      60.0414      1.00002   0.00131871  9.51265e-05 
         100      60.3784      1.00002   0.00131813  9.57792e-05 
         100      60.7161      1.00002   0.00131769    9.645e-05 
         100      61.0548      1.00002   0.00131764  9.71623e-05 
         100      61.3944      1.00002   0.00131727  9.77493e-05 
         100      61.7351      1.00002   0.00131654  9.82461e-05 
         100      62.0767      1.00002   0.00131624  9.88507e-05 
         100      62.4191      1.00002   0.00131589  9.94889e-05 
         100      62.7625      1.00002   0.00131541  0.000100074 
         100       63.107      1.00002   0.00131556  0.000100473 
         100      63.4523      1.00002   0.00131493  0.000100994 
         100      63.7985      1.00002   0.00131397   0.00010167 
         100      64.1458      1.00002   0.00131363  0.000102296 
         100      64.4939      1.00002   0.00131336  0.000102907 
         100       64.843      1.00002   0.00131299  0.000103521 
         100      65.1929      1.00002   0.00131253   0.00010414 
         100       65.544      1.00003   0.00131205  0.000104759 
         100      65.8959      1.00003   0.00131166  0.000105371 
         100      66.2487      1.00003   0.00131142  0.000105966 
         100      66.6025      1.00003   0.00131138   0.00010654 
         100      66.9573      1.00003   0.00131085  0.000107196 
         100       67.313      1.00003   0.00131019  0.000107843 
         100      67.6695      1.00003    0.0013096  0.000108452 
         100      68.0271      1.00003   0.00130907  0.000109036 
         100      68.3857      1.00003   0.00130859  0.000109601 
         100      68.7451      1.00003   0.00130813  0.000110155 
         100      69.1055      1.00003   0.00130769  0.000110703 
         100      69.4669      1.00003   0.00130723  0.000111249 
         100      69.8291      1.00003   0.00130677  0.000111794 
         100      70.1923      1.00003   0.00130629  0.000112339 
         100      70.5564      1.00003   0.00130581  0.000112887 
         100      70.9217      1.00003   0.00130532  0.000113439 
         100      71.2877      1.00003   0.00130484  0.000113994 
         100      71.6546      1.00003   0.00130438  0.000114556 
         100      72.0225      1.00003   0.00130393  0.000115127 
         100      72.3915      1.00003    0.0013035  0.000115709 
         100      72.7613      1.00003   0.00130307  0.000116304 
         100       73.132      1.00003   0.00130263  0.000116912 
         100      73.5036      1.00004   0.00130217  0.000117531 
         100      73.8764      1.00004   0.00130168  0.000118154 
         100      74.2499      1.00004   0.00130118  0.000118764 
         100      74.6244      1.00003   0.00130073  0.000119334 
         100           75            1   0.00130048  0.000119821 
