Variables = x, y, u, v, p

Zone, I=400, F=POINT
         450            0           -0           -0 -1.49793e-05 
         450     0.000471  0.000176224  2.63979e-11 -1.49792e-05 
         450     0.001884  0.000704896  4.22371e-10 -1.49789e-05 
         450     0.004239   0.00158602  2.13825e-09 -1.49783e-05 
         450     0.007537   0.00281996  6.75974e-09 -1.49775e-05 
         450     0.011776   0.00440597  1.65017e-08 -1.49765e-05 
         450     0.016958   0.00634481  3.42202e-08 -1.49753e-05 
         450     0.023081   0.00863573  6.33932e-08 -1.49738e-05 
         450      0.03015    0.0112806   1.0817e-07 -1.49721e-05 
         450     0.038157    0.0142764  1.73254e-07 -1.49702e-05 
         450     0.047107     0.017625  2.64061e-07 -1.49681e-05 
         450     0.056999    0.0213261  3.86606e-07 -1.49657e-05 
         450     0.067837    0.0253811  5.47604e-07 -1.49632e-05 
         450     0.079614    0.0297874  7.54243e-07 -1.49604e-05 
         450     0.092332    0.0345457  1.01446e-06 -1.49573e-05 
         450     0.105992    0.0396564  1.33683e-06 -1.49541e-05 
         450       0.1206    0.0451217  1.73069e-06 -1.49506e-05 
         450     0.136145    0.0509374  2.20559e-06 -1.49469e-05 
         450     0.152631     0.057105  2.77205e-06  -1.4943e-05 
         450     0.170067    0.0636276  3.44149e-06 -1.49388e-05 
         450     0.188438    0.0704996  4.22505e-06 -1.49345e-05 
         450     0.207751    0.0777234   5.1353e-06 -1.49299e-05 
         450     0.228006    0.0852988   6.1852e-06  -1.4925e-05 
         450     0.249212    0.0932288  7.38881e-06   -1.492e-05 
         450     0.271351     0.101506   8.7593e-06 -1.49147e-05 
         450     0.294433     0.110135   1.0312e-05 -1.49092e-05 
         450     0.318456     0.119113  1.20621e-05 -1.49035e-05 
         450     0.343432     0.128445  1.40265e-05 -1.48975e-05 
         450     0.369339      0.13812    1.622e-05 -1.48913e-05 
         450     0.396189     0.148144  1.86606e-05 -1.48849e-05 
         450     0.423981     0.158515  2.13657e-05 -1.48782e-05 
         450     0.452726     0.169234  2.43547e-05 -1.48714e-05 
         450     0.482403     0.180293  2.76439e-05 -1.48642e-05 
         450     0.513021     0.191693  3.12531e-05 -1.48569e-05 
         450     0.544594     0.203437  3.52036e-05 -1.48493e-05 
         450     0.577096     0.215514  3.95118e-05 -1.48414e-05 
         450     0.610541     0.227924  4.41996e-05 -1.48333e-05 
         450     0.644927     0.240664  4.92869e-05  -1.4825e-05 
         450      0.68027     0.253737  5.47966e-05 -1.48164e-05 
         450     0.716541     0.267126  6.07447e-05 -1.48075e-05 
         450     0.753754     0.280832  6.71541e-05 -1.47984e-05 
         450     0.791909      0.29485  7.40449e-05 -1.47889e-05 
         450     0.831022     0.309178  8.14406e-05 -1.47792e-05 
         450     0.871061     0.323798  8.93547e-05 -1.47692e-05 
         450     0.912043     0.338707  9.78098e-05 -1.47589e-05 
         450     0.953966     0.353897  0.000106824 -1.47483e-05 
         450     0.996849     0.369364   0.00011642 -1.47374e-05 
         450      1.04066     0.385083  0.000126606 -1.47261e-05 
         450      1.08541      0.40105  0.000137401 -1.47145e-05 
         450      1.13112     0.417257  0.000148825 -1.47024e-05 
         450      1.17775     0.433676  0.000160881   -1.469e-05 
         450      1.22533     0.450298  0.000173584 -1.46771e-05 
         450      1.27384     0.467105  0.000186941 -1.46639e-05 
         450      1.32333     0.484086  0.000200964 -1.46502e-05 
         450      1.37373     0.501205  0.000215646  -1.4636e-05 
         450      1.42507     0.518448  0.000230991 -1.46213e-05 
         450      1.47736     0.535792  0.000246997  -1.4606e-05 
         450      1.53061     0.553218  0.000263662 -1.45896e-05 
         450      1.58478     0.570685  0.000280964 -1.45729e-05 
         450      1.63989     0.588173  0.000298894 -1.45562e-05 
         450      1.69595     0.605651   0.00031743  -1.4539e-05 
         450      1.75297     0.623096  0.000336557  -1.4521e-05 
         450      1.81091     0.640461   0.00035623 -1.45021e-05 
         450      1.86979      0.65772  0.000376422 -1.44822e-05 
         450      1.92964     0.674845  0.000397103 -1.44612e-05 
         450       1.9904     0.691787  0.000418211 -1.44391e-05 
         450      2.05211     0.708517  0.000439705 -1.44161e-05 
         450      2.11476     0.724997   0.00046153 -1.43922e-05 
         450      2.17838     0.741199  0.000483635 -1.43674e-05 
         450      2.24291     0.757073  0.000505937 -1.43418e-05 
         450      2.30839     0.772589  0.000528377 -1.43153e-05 
         450       2.3748     0.787714  0.000550883 -1.42881e-05 
         450      2.44219     0.802417  0.000573386 -1.42599e-05 
         450      2.51049     0.816656   0.00059579 -1.42307e-05 
         450      2.57974     0.830407  0.000618025 -1.42003e-05 
         450      2.64993     0.843641  0.000640009 -1.41686e-05 
         450      2.72108     0.856338   0.00066167 -1.41355e-05 
         450      2.79315     0.868466  0.000682911 -1.41009e-05 
         450      2.86617     0.880011  0.000703662 -1.40647e-05 
         450      2.94012     0.890958  0.000723847 -1.40271e-05 
         450      3.01505       0.9013  0.000743405  -1.3988e-05 
         450      3.09089      0.91102  0.000762253 -1.39479e-05 
         450      3.16767     0.920119  0.000780338 -1.39068e-05 
         450      3.24542     0.928603  0.000797614 -1.38651e-05 
         450      3.32409     0.936468  0.000814022 -1.38231e-05 
         450       3.4037     0.943728  0.000829529 -1.37807e-05 
         450      3.48425     0.950396  0.000844109 -1.37375e-05 
         450      3.56577      0.95649  0.000857747 -1.36923e-05 
         450       3.6482     0.962025  0.000870425 -1.36429e-05 
         450      3.73158     0.967028  0.000882153 -1.35853e-05 
         450       3.8159     0.971524   0.00089292  -1.3534e-05 
         450      3.90119     0.975542  0.000902759 -1.34853e-05 
         450       3.9874     0.979108  0.000911691 -1.34355e-05 
         450      4.07454     0.982256  0.000919748 -1.33847e-05 
         450      4.16263     0.985017  0.000926967  -1.3333e-05 
         450      4.25169     0.987423  0.000933394 -1.32803e-05 
         450      4.34166     0.989505  0.000939072 -1.32266e-05 
         450      4.43258     0.991295  0.000944056 -1.31718e-05 
         450      4.52447     0.992823  0.000948401 -1.31159e-05 
         450      4.61726     0.994117   0.00095216  -1.3059e-05 
         450        4.711     0.995207  0.000955388 -1.30011e-05 
         450      4.80569     0.996116  0.000958139 -1.29425e-05 
         450      4.90135      0.99687  0.000960467 -1.28832e-05 
         450      4.99791      0.99749  0.000962418 -1.28234e-05 
         450      5.09542     0.997995  0.000964041 -1.27634e-05 
         450      5.19387     0.998404  0.000965379 -1.27031e-05 
         450       5.2933     0.998732  0.000966472 -1.26425e-05 
         450      5.39364     0.998993  0.000967356 -1.25816e-05 
         450      5.49491     0.999199  0.000968064 -1.25201e-05 
         450      5.59713      0.99936  0.000968627 -1.24578e-05 
         450      5.70033     0.999485  0.000969071 -1.23942e-05 
         450      5.80443      0.99958  0.000969419 -1.23291e-05 
         450      5.90948     0.999653  0.000969691 -1.22623e-05 
         450      6.01551     0.999708  0.000969903 -1.21944e-05 
         450      6.12244     0.999749  0.000970067 -1.21263e-05 
         450      6.23031     0.999779   0.00097019 -1.20603e-05 
         450      6.33912     0.999802  0.000970277 -1.19992e-05 
         450      6.44892     0.999818  0.000970343 -1.19336e-05 
         450      6.55962      0.99983  0.000970389 -1.18652e-05 
         450      6.67126     0.999838  0.000970411 -1.17873e-05 
         450      6.78384     0.999845  0.000970437 -1.17121e-05 
         450      6.89741     0.999849   0.00097048 -1.16474e-05 
         450      7.01187     0.999852   0.00097051 -1.15853e-05 
         450      7.12728     0.999854  0.000970509 -1.15184e-05 
         450      7.24363     0.999856  0.000970497 -1.14453e-05 
         450      7.36097     0.999857  0.000970486 -1.13671e-05 
         450       7.4792     0.999859  0.000970484 -1.12858e-05 
         450      7.59838     0.999859  0.000970492 -1.12038e-05 
         450      7.71854      0.99986  0.000970508 -1.11231e-05 
         450       7.8396     0.999861  0.000970527 -1.10453e-05 
         450      7.96161     0.999861  0.000970544 -1.09707e-05 
         450      8.08455     0.999862  0.000970555 -1.08989e-05 
         450      8.20849     0.999863  0.000970559 -1.08286e-05 
         450      8.33332     0.999863  0.000970555 -1.07582e-05 
         450      8.45909     0.999864  0.000970545 -1.06857e-05 
         450       8.5858     0.999864  0.000970534 -1.06097e-05 
         450      8.71351     0.999865  0.000970526 -1.05294e-05 
         450       8.8421     0.999866  0.000970524  -1.0445e-05 
         450      8.97164     0.999866  0.000970531 -1.03582e-05 
         450      9.10212     0.999867  0.000970543 -1.02712e-05 
         450       9.2336     0.999867  0.000970554 -1.01872e-05 
         450      9.36596     0.999868  0.000970558 -1.01083e-05 
         450      9.49927     0.999869  0.000970549 -1.00338e-05 
         450      9.63352     0.999869  0.000970537 -9.95762e-06 
         450      9.76877      0.99987  0.000970558 -9.86385e-06 
         450       9.9049     0.999871  0.000970585 -9.77486e-06 
         450       10.042     0.999871  0.000970564 -9.70801e-06 
         450      10.1801     0.999872  0.000970567 -9.61583e-06 
         450       10.319     0.999873  0.000970565 -9.51494e-06 
         450      10.4589     0.999873  0.000970568 -9.41537e-06 
         450      10.5998     0.999874  0.000970602 -9.32234e-06 
         450      10.7416     0.999875  0.000970633 -9.23658e-06 
         450      10.8843     0.999875  0.000970558 -9.15322e-06 
         450       11.028     0.999876  0.000970613 -9.06952e-06 
         450      11.1726     0.999877    0.0009706 -8.98633e-06 
         450      11.3182     0.999877  0.000970572 -8.90233e-06 
         450      11.4647     0.999878  0.000970556 -8.81681e-06 
         450      11.6122     0.999879  0.000970558  -8.7294e-06 
         450      11.7605     0.999879  0.000970576    -8.64e-06 
         450      11.9099      0.99988  0.000970601  -8.5487e-06 
         450      12.0602     0.999881  0.000970626 -8.45579e-06 
         450      12.2114     0.999882  0.000970644 -8.36147e-06 
         450      12.3636     0.999882  0.000970652 -8.26596e-06 
         450      12.5167     0.999883   0.00097065 -8.16953e-06 
         450      12.6707     0.999884  0.000970642 -8.07228e-06 
         450      12.8257     0.999885   0.00097063 -7.97427e-06 
         450      12.9817     0.999885   0.00097062 -7.87547e-06 
         450      13.1386     0.999886  0.000970616 -7.77592e-06 
         450      13.2964     0.999887  0.000970617 -7.67553e-06 
         450      13.4551     0.999888  0.000970625 -7.57427e-06 
         450      13.6149     0.999888  0.000970636  -7.4721e-06 
         450      13.7755     0.999889  0.000970646  -7.3692e-06 
         450      13.9371      0.99989  0.000970652  -7.2657e-06 
         450      14.0996     0.999891  0.000970651 -7.16191e-06 
         450      14.2631     0.999892  0.000970644 -7.05815e-06 
         450      14.4275     0.999893  0.000970636 -6.95493e-06 
         450      14.5928     0.999893  0.000970635 -6.85258e-06 
         450      14.7592     0.999894  0.000970648  -6.7513e-06 
         450      14.9264     0.999895  0.000970676 -6.65102e-06 
         450      15.0946     0.999896  0.000970701 -6.55096e-06 
         450      15.2637     0.999897  0.000970667 -6.44942e-06 
         450      15.4338     0.999898  0.000970596 -6.39472e-06 
         450      15.6048     0.999899   0.00097067 -6.31344e-06 
         450      15.7767     0.999899  0.000970696 -6.18413e-06 
         450      15.9496       0.9999  0.000970687 -6.05113e-06 
         450      16.1235     0.999901  0.000970667 -5.92104e-06 
         450      16.2982     0.999902   0.00097065 -5.79712e-06 
         450      16.4739     0.999903  0.000970644 -5.67993e-06 
         450      16.6506     0.999904   0.00097065 -5.56855e-06 
         450      16.8282     0.999905  0.000970667 -5.46113e-06 
         450      17.0068     0.999906  0.000970689 -5.35573e-06 
         450      17.1862     0.999907   0.00097071 -5.25042e-06 
         450      17.3667     0.999907  0.000970724 -5.14373e-06 
         450      17.5481     0.999908   0.00097073 -5.03489e-06 
         450      17.7304     0.999909  0.000970725 -4.92366e-06 
         450      17.9136      0.99991  0.000970712 -4.81035e-06 
         450      18.0979     0.999911  0.000970695 -4.69561e-06 
         450       18.283     0.999912   0.00097068 -4.58039e-06 
         450      18.4691     0.999913  0.000970673 -4.46542e-06 
         450      18.6561     0.999914  0.000970676 -4.35115e-06 
         450      18.8441     0.999915  0.000970691 -4.23751e-06 
         450       19.033     0.999916  0.000970713 -4.12396e-06 
         450      19.2228     0.999917  0.000970734 -4.00931e-06 
         450      19.4136     0.999918  0.000970745 -3.89219e-06 
         450      19.6054     0.999919  0.000970737 -3.77145e-06 
         450       19.798      0.99992  0.000970716 -3.64729e-06 
         450      19.9917     0.999921  0.000970711 -3.52225e-06 
         450      20.1862     0.999921    0.0009708 -3.40326e-06 
         450      20.3818     0.999923  0.000970717 -3.26604e-06 
         450      20.5782     0.999924  0.000970707 -3.13556e-06 
         450      20.7756     0.999925  0.000970731 -3.00816e-06 
         450       20.974     0.999926  0.000970758 -2.88114e-06 
         450      21.1732     0.999927  0.000970774 -2.75361e-06 
         450      21.3734     0.999928  0.000970776 -2.62565e-06 
         450      21.5745     0.999929  0.000970766 -2.49801e-06 
         450      21.7767      0.99993  0.000970749 -2.37158e-06 
         450      21.9797     0.999931   0.00097073 -2.24728e-06 
         450      22.1837     0.999932  0.000970713 -2.12543e-06 
         450      22.3886     0.999933  0.000970702 -2.00578e-06 
         450      22.5945     0.999934  0.000970699 -1.88727e-06 
         450      22.8013     0.999935  0.000970705 -1.76813e-06 
         450      23.0091     0.999936  0.000970719 -1.64562e-06 
         450      23.2177     0.999937  0.000970739  -1.5163e-06 
         450      23.4274     0.999938  0.000970763 -1.37596e-06 
         450       23.638     0.999939  0.000970779 -1.23462e-06 
         450      23.8495      0.99994  0.000970775 -1.13847e-06 
         450       24.062     0.999941  0.000970762 -1.02273e-06 
         450      24.2754     0.999943  0.000970744 -8.92487e-07 
         450      24.4897     0.999944  0.000970729 -7.51111e-07 
         450       24.705     0.999945  0.000970721  -6.0224e-07 
         450      24.9213     0.999946  0.000970717 -4.50509e-07 
         450      25.1385     0.999947  0.000970704 -3.01257e-07 
         450      25.3566     0.999948  0.000970677 -1.57962e-07 
         450      25.5756      0.99995  0.000970663 -1.82689e-08 
         450      25.7957     0.999951  0.000970772  1.32775e-07 
         450      26.0166     0.999951  0.000970777  2.49947e-07 
         450      26.2385     0.999952  0.000970842  3.75352e-07 
         450      26.4613     0.999953  0.000970772  5.09879e-07 
         450      26.6851     0.999954   0.00097063   6.4167e-07 
         450      26.9098     0.999956  0.000971003  7.15832e-07 
         450      27.1354     0.999957  0.000970631  9.10769e-07 
         450      27.3621     0.999958  0.000970596  1.07715e-06 
         450      27.5896     0.999959  0.000970704  1.22361e-06 
         450      27.8181      0.99996  0.000970819  1.36094e-06 
         450      28.0475     0.999962  0.000970882  1.49634e-06 
         450      28.2779     0.999963  0.000970882  1.63419e-06 
         450      28.5092     0.999964  0.000970835  1.77647e-06 
         450      28.7414     0.999965  0.000970765  1.92362e-06 
         450      28.9746     0.999966  0.000970698  2.07487e-06 
         450      29.2088     0.999967  0.000970654   2.2288e-06 
         450      29.4439     0.999968  0.000970642  2.38346e-06 
         450      29.6799     0.999969  0.000970662  2.53709e-06 
         450      29.9168      0.99997  0.000970705  2.68813e-06 
         450      30.1548     0.999972   0.00097076  2.83555e-06 
         450      30.3936     0.999973   0.00097081  2.97875e-06 
         450      30.6334     0.999974  0.000970843  3.11797e-06 
         450      30.8742     0.999975   0.00097085  3.25412e-06 
         450      31.1158     0.999977  0.000970829  3.38856e-06 
         450      31.3584     0.999978  0.000970785   3.5233e-06 
         450       31.602     0.999979  0.000970731  3.66061e-06 
         450      31.8465      0.99998   0.00097068  3.80282e-06 
         450      32.0919     0.999981   0.00097065  3.95185e-06 
         450      32.3383     0.999982  0.000970653  4.10915e-06 
         450      32.5856     0.999983  0.000970692  4.27502e-06 
         450       32.834     0.999984  0.000970761  4.44831e-06 
         450      33.0831     0.999985  0.000970838  4.62561e-06 
         450      33.3333     0.999986  0.000970889   4.8011e-06 
         450      33.5843     0.999988  0.000970876  4.96566e-06 
         450      33.8364      0.99999   0.00097077  5.10642e-06 
         450      34.0894     0.999991  0.000970579  5.20587e-06 
         450      34.3433     0.999991  0.000970622  5.35078e-06 
         450      34.5981     0.999992  0.000970792  5.53958e-06 
         450       34.854     0.999993  0.000970645   5.6526e-06 
         450      35.1107     0.999995   0.00097076  5.74172e-06 
         450      35.3684     0.999996  0.000970896  5.83682e-06 
         450      35.6271     0.999998  0.000970897  6.04327e-06 
         450      35.8867     0.999999  0.000970832  6.26695e-06 
         450      36.1472            1  0.000970745  6.47826e-06 
         450      36.4086            1  0.000970657  6.67754e-06 
         450      36.6711            1  0.000970588   6.8659e-06 
         450      36.9344            1  0.000970549  7.04466e-06 
         450      37.1987            1  0.000970544  7.21557e-06 
         450      37.4639      1.00001  0.000970569  7.38034e-06 
         450      37.7301      1.00001  0.000970617  7.54069e-06 
         450      37.9972      1.00001  0.000970675  7.69799e-06 
         450      38.2652      1.00001  0.000970729  7.85364e-06 
         450      38.5342      1.00001  0.000970769  8.00882e-06 
         450      38.8042      1.00001  0.000970785  8.16464e-06 
         450      39.0751      1.00001  0.000970775  8.32192e-06 
         450      39.3469      1.00001   0.00097074  8.48165e-06 
         450      39.6197      1.00002  0.000970686  8.64484e-06 
         450      39.8934      1.00002  0.000970625  8.81232e-06 
         450       40.168      1.00002   0.00097057  8.98519e-06 
         450      40.4436      1.00002  0.000970534  9.16446e-06 
         450      40.7202      1.00002  0.000970529   9.3511e-06 
         450      40.9977      1.00002  0.000970557  9.54557e-06 
         450      41.2761      1.00002  0.000970615  9.74799e-06 
         450      41.5554      1.00002  0.000970689  9.95742e-06 
         450      41.8358      1.00002  0.000970756  1.01715e-05 
         450       42.117      1.00003  0.000970786  1.03854e-05 
         450      42.3992      1.00003  0.000970755  1.05916e-05 
         450      42.6823      1.00003  0.000970648  1.07782e-05 
         450      42.9664      1.00003  0.000970617  1.08871e-05 
         450      43.2514      1.00003  0.000970616  1.09712e-05 
         450      43.5373      1.00003  0.000970576  1.10617e-05 
         450      43.8243      1.00003  0.000970508   1.1172e-05 
         450      44.1121      1.00003  0.000970457  1.13207e-05 
         450      44.4009      1.00004  0.000970489  1.15337e-05 
         450      44.6906      1.00004  0.000970692  1.18465e-05 
         450      44.9813      1.00004  0.000970647  1.20403e-05 
         450      45.2729      1.00004  0.000970397  1.20884e-05 
         450      45.5654      1.00004  0.000970377  1.22298e-05 
         450      45.8589      1.00004  0.000970453  1.24221e-05 
         450      46.1534      1.00004  0.000970547  1.26365e-05 
         450      46.4488      1.00004  0.000970613  1.28546e-05 
         450      46.7451      1.00004  0.000970637  1.30662e-05 
         450      47.0423      1.00005  0.000970619  1.32672e-05 
         450      47.3406      1.00005   0.00097057  1.34573e-05 
         450      47.6397      1.00005  0.000970507  1.36388e-05 
         450      47.9398      1.00005  0.000970445  1.38151e-05 
         450      48.2409      1.00005  0.000970394  1.39903e-05 
         450      48.5428      1.00005  0.000970362  1.41676e-05 
         450      48.8457      1.00005  0.000970352  1.43494e-05 
         450      49.1496      1.00005  0.000970359  1.45373e-05 
         450      49.4545      1.00005  0.000970377  1.47315e-05 
         450      49.7602      1.00006  0.000970396  1.49309e-05 
         450      50.0668      1.00006   0.00097041   1.5134e-05 
         450      50.3744      1.00006   0.00097041  1.53384e-05 
         450      50.6831      1.00006  0.000970393  1.55419e-05 
         450      50.9926      1.00006  0.000970364  1.57423e-05 
         450       51.303      1.00006  0.000970328  1.59382e-05 
         450      51.6144      1.00006  0.000970298  1.61288e-05 
         450      51.9268      1.00006  0.000970286  1.63146e-05 
         450        52.24      1.00006  0.000970304  1.64965e-05 
         450      52.5542      1.00006  0.000970349  1.66761e-05 
         450      52.8694      1.00007  0.000970397  1.68545e-05 
         450      53.1856      1.00007  0.000970402  1.70381e-05 
         450      53.5026      1.00007  0.000970433   1.7254e-05 
         450      53.8205      1.00007  0.000970439  1.74651e-05 
         450      54.1396      1.00007  0.000970409  1.76758e-05 
         450      54.4594      1.00007  0.000970349  1.78876e-05 
         450      54.7802      1.00007  0.000970272  1.81004e-05 
         450      55.1019      1.00007  0.000970197  1.83123e-05 
         450      55.4247      1.00007  0.000970144  1.85206e-05 
         450      55.7483      1.00007  0.000970129  1.87222e-05 
         450      56.0729      1.00008  0.000970158  1.89158e-05 
         450      56.3984      1.00008  0.000970224  1.91027e-05 
         450       56.725      1.00008  0.000970301  1.92893e-05 
         450      57.0523      1.00008  0.000970333  1.94891e-05 
         450      57.3807      1.00008  0.000970233  1.97261e-05 
         450      57.7099      1.00008  0.000970135  1.99508e-05 
         450      58.0403      1.00008  0.000970247  2.01014e-05 
         450      58.3714      1.00008  0.000970183  2.03129e-05 
         450      58.7035      1.00008  0.000970076   2.0547e-05 
         450      59.0367      1.00009  0.000969995  2.07809e-05 
         450      59.3707      1.00009  0.000969968   2.1003e-05 
         450      59.7056      1.00009  0.000969992  2.12106e-05 
         450      60.0414      1.00009  0.000970051   2.1406e-05 
         450      60.3784      1.00009  0.000970117  2.15942e-05 
         450      60.7161      1.00009  0.000970164  2.17806e-05 
         450      61.0548      1.00009  0.000970171  2.19696e-05 
         450      61.3944      1.00009  0.000970129  2.21634e-05 
         450      61.7351      1.00009  0.000970043  2.23618e-05 
         450      62.0767      1.00009  0.000969937  2.25624e-05 
         450      62.4191       1.0001   0.00096985  2.27623e-05 
         450      62.7625       1.0001  0.000969821  2.29598e-05 
         450       63.107       1.0001  0.000969874  2.31576e-05 
         450      63.4523       1.0001   0.00096998  2.33672e-05 
         450      63.7985       1.0001  0.000969999  2.36142e-05 
         450      64.1458       1.0001  0.000969827  2.38917e-05 
         450      64.4939       1.0001  0.000970005   2.4086e-05 
         450       64.843       1.0001  0.000969976  2.43412e-05 
         450      65.1929       1.0001  0.000969873  2.46077e-05 
         450       65.544       1.0001  0.000969772  2.48583e-05 
         450      65.8959       1.0001  0.000969706  2.50825e-05 
         450      66.2487       1.0001  0.000969684  2.52809e-05 
         450      66.6025       1.0001  0.000969697  2.54611e-05 
         450      66.9573      1.00011  0.000969729  2.56338e-05 
         450       67.313      1.00011  0.000969763  2.58099e-05 
         450      67.6695      1.00011  0.000969786  2.59988e-05 
         450      68.0271      1.00011  0.000969787   2.6207e-05 
         450      68.3857      1.00011  0.000969763  2.64372e-05 
         450      68.7451      1.00012  0.000969716  2.66881e-05 
         450      69.1055      1.00012  0.000969652   2.6955e-05 
         450      69.4669      1.00012  0.000969582  2.72307e-05 
         450      69.8291      1.00012  0.000969514  2.75057e-05 
         450      70.1923      1.00012  0.000969459  2.77704e-05 
         450      70.5564      1.00012  0.000969424  2.80163e-05 
         450      70.9217      1.00011  0.000969409  2.82368e-05 
         450      71.2877      1.00011  0.000969413  2.84291e-05 
         450      71.6546      1.00011  0.000969428  2.85948e-05 
         450      72.0225      1.00012  0.000969444  2.87408e-05 
         450      72.3915      1.00012  0.000969448  2.88791e-05 
         450      72.7613      1.00012   0.00096943  2.90259e-05 
         450       73.132      1.00012  0.000969386  2.92006e-05 
         450      73.5036      1.00012  0.000969325  2.94228e-05 
         450      73.8764      1.00012  0.000969275  2.97087e-05 
         450      74.2499       1.0001  0.000969294  3.00649e-05 
         450      74.6244      1.00007  0.000969434  3.04192e-05 
         450           75            1  0.000969424  3.07456e-05 
