Variables = x, y, u, v, p

Zone, I=800, F=POINT
         950            0            0            0 -1.37081e-05 
         950     0.000234  6.84235e-05  3.26915e-12 -1.37081e-05 
         950     0.000939  0.000274571  5.11723e-11  -1.3708e-05 
         950     0.002113  0.000617859  2.57745e-10 -1.37078e-05 
         950     0.003759   0.00109916  8.14175e-10 -1.37077e-05 
         950     0.005872   0.00171702    1.985e-09 -1.37074e-05 
         950     0.008457    0.0024729  4.11537e-09 -1.37071e-05 
         950      0.01151   0.00336563  7.62069e-09 -1.37068e-05 
         950     0.015036   0.00439666  1.30022e-08 -1.37064e-05 
         950     0.019031   0.00556484  2.08263e-08 -1.37059e-05 
         950     0.023493   0.00686958  3.17334e-08 -1.37054e-05 
         950     0.028429   0.00831292  4.64645e-08 -1.37048e-05 
         950     0.033831   0.00989253  6.57951e-08 -1.37042e-05 
         950     0.039706    0.0116105  9.06244e-08 -1.37035e-05 
         950     0.046047    0.0134646  1.21873e-07 -1.37028e-05 
         950     0.052863    0.0154577  1.60613e-07  -1.3702e-05 
         950      0.06015    0.0175885  2.07933e-07 -1.37012e-05 
         950       0.0679    0.0198548  2.64951e-07 -1.37003e-05 
         950     0.076126    0.0222602  3.33017e-07 -1.36993e-05 
         950     0.084816    0.0248012  4.13361e-07 -1.36983e-05 
         950     0.093982    0.0274815  5.07501e-07 -1.36973e-05 
         950     0.103611    0.0302972  6.16782e-07 -1.36962e-05 
         950     0.113718    0.0332526  7.42935e-07  -1.3695e-05 
         950     0.124286    0.0363428  8.87377e-07 -1.36938e-05 
         950     0.135333    0.0395731  1.05206e-06 -1.36925e-05 
         950      0.14685    0.0429408  1.23865e-06 -1.36912e-05 
         950     0.158827    0.0464429  1.44883e-06 -1.36899e-05 
         950     0.171284    0.0500854  1.68488e-06 -1.36884e-05 
         950     0.184201    0.0538623  1.94843e-06 -1.36869e-05 
         950     0.197599    0.0577797  2.24199e-06 -1.36854e-05 
         950     0.211455     0.061831   2.5672e-06 -1.36838e-05 
         950     0.225792    0.0660228  2.92685e-06 -1.36822e-05 
         950       0.2406    0.0703521  3.32302e-06 -1.36805e-05 
         950     0.255865    0.0748149  3.75766e-06 -1.36787e-05 
         950     0.271613    0.0794186    4.234e-06 -1.36769e-05 
         950     0.287818    0.0841556  4.75376e-06 -1.36751e-05 
         950     0.304506    0.0890335  5.32036e-06 -1.36732e-05 
         950      0.32165    0.0940442  5.93554e-06 -1.36712e-05 
         950     0.339278    0.0991959  6.60307e-06 -1.36692e-05 
         950     0.357377     0.104485  7.32533e-06 -1.36671e-05 
         950      0.37593     0.109905  8.10447e-06  -1.3665e-05 
         950     0.394968     0.115467  8.94473e-06 -1.36628e-05 
         950     0.414461     0.121161  9.84778e-06 -1.36606e-05 
         950      0.43444     0.126995  1.08182e-05 -1.36583e-05 
         950     0.454872     0.132961  1.18574e-05  -1.3656e-05 
         950     0.475791     0.139067  1.29705e-05 -1.36536e-05 
         950     0.497163     0.145304  1.41589e-05 -1.36511e-05 
         950     0.519021     0.151681  1.54278e-05 -1.36486e-05 
         950      0.54135     0.158193  1.67798e-05 -1.36461e-05 
         950     0.564131     0.164834   1.8217e-05 -1.36435e-05 
         950       0.5874     0.171615  1.97452e-05 -1.36408e-05 
         950     0.611121     0.178524   2.1366e-05 -1.36381e-05 
         950      0.63533     0.185572  2.30852e-05 -1.36353e-05 
         950      0.65999     0.192748  2.49035e-05 -1.36325e-05 
         950     0.685139     0.200061  2.68276e-05 -1.36296e-05 
         950     0.710759     0.207506  2.88603e-05 -1.36267e-05 
         950     0.736828     0.215076  3.10036e-05 -1.36237e-05 
         950     0.763387     0.222782  3.32645e-05 -1.36206e-05 
         950     0.790396     0.230612  3.56433e-05 -1.36175e-05 
         950     0.817896     0.238577  3.81476e-05 -1.36144e-05 
         950     0.845843     0.246662   4.0777e-05 -1.36112e-05 
         950     0.874283     0.254881  4.35399e-05  -1.3608e-05 
         950      0.90317     0.263219  4.64356e-05 -1.36046e-05 
         950     0.932551     0.271688  4.94728e-05 -1.36012e-05 
         950     0.962401     0.280279  5.26531e-05 -1.35978e-05 
         950     0.992697     0.288985  5.59778e-05 -1.35943e-05 
         950      1.02349     0.297819  5.94563e-05 -1.35907e-05 
         950      1.05472     0.306763  6.30866e-05 -1.35871e-05 
         950      1.08645     0.315831  6.68785e-05 -1.35834e-05 
         950      1.11863     0.325007  7.08294e-05 -1.35796e-05 
         950       1.1513     0.334303  7.49492e-05 -1.35758e-05 
         950      1.18444     0.343709  7.92381e-05  -1.3572e-05 
         950      1.21802     0.353216  8.36958e-05 -1.35681e-05 
         950      1.25211     0.362836  8.83329e-05 -1.35641e-05 
         950      1.28663     0.372552  9.31449e-05 -1.35601e-05 
         950      1.32165     0.382375  9.81433e-05 -1.35559e-05 
         950      1.35712     0.392288  0.000103323 -1.35517e-05 
         950      1.39308     0.402303  0.000108696 -1.35473e-05 
         950      1.42951     0.412409   0.00011426  -1.3543e-05 
         950      1.46638     0.422594  0.000120012 -1.35387e-05 
         950      1.50375     0.432871  0.000125962 -1.35347e-05 
         950      1.54156     0.443218  0.000132088 -1.35301e-05 
         950      1.57987     0.453649  0.000138442 -1.35252e-05 
         950      1.61863     0.464143  0.000145003 -1.35202e-05 
         950      1.65788     0.474712  0.000151774  -1.3515e-05 
         950      1.69757     0.485333  0.000158737 -1.35098e-05 
         950      1.73776      0.49602  0.000165902 -1.35047e-05 
         950      1.77842     0.506757  0.000173261 -1.34995e-05 
         950      1.81952     0.517532  0.000180808 -1.34943e-05 
         950      1.86113     0.528354  0.000188557 -1.34891e-05 
         950      1.90316     0.539202  0.000196497 -1.34839e-05 
         950      1.94571     0.550086  0.000204641 -1.34786e-05 
         950      1.98869     0.560982  0.000212977 -1.34733e-05 
         950      2.03217     0.571901  0.000221518 -1.34679e-05 
         950      2.07612     0.582827  0.000230256 -1.34623e-05 
         950      2.12051     0.593745  0.000239181 -1.34565e-05 
         950       2.1654     0.604664  0.000248303 -1.34505e-05 
         950      2.21073     0.615559  0.000257602 -1.34444e-05 
         950      2.25656      0.62644  0.000267087  -1.3438e-05 
         950      2.30283     0.637282  0.000276734 -1.34314e-05 
         950       2.3496     0.648093   0.00028655 -1.34246e-05 
         950      2.39685     0.658857  0.000296518 -1.34175e-05 
         950      2.44452     0.669557   0.00030662 -1.34103e-05 
         950      2.49271     0.680201  0.000316861 -1.34029e-05 
         950      2.54132     0.690763  0.000327216 -1.33953e-05 
         950      2.59044     0.701252  0.000337689 -1.33876e-05 
         950         2.64     0.711642  0.000348256 -1.33798e-05 
         950      2.69006      0.72194  0.000358922  -1.3372e-05 
         950      2.74056     0.732121  0.000369662 -1.33641e-05 
         950      2.79156     0.742193  0.000380483 -1.33562e-05 
         950      2.84304     0.752139  0.000391369 -1.33482e-05 
         950      2.89494     0.761942    0.0004023 -1.33403e-05 
         950      2.94735     0.771608  0.000413284 -1.33322e-05 
         950       3.0002     0.781115  0.000424292  -1.3324e-05 
         950      3.05355     0.790469  0.000435328 -1.33157e-05 
         950      3.10733     0.799646   0.00044636 -1.33072e-05 
         950      3.16163     0.808655  0.000457385 -1.32985e-05 
         950      3.21639     0.817479  0.000468376 -1.32894e-05 
         950      3.27158     0.826104  0.000479299   -1.328e-05 
         950      3.32729     0.834539  0.000490147 -1.32702e-05 
         950      3.38342     0.842761  0.000500877 -1.32601e-05 
         950      3.44007      0.85078  0.000511484 -1.32499e-05 
         950      3.49714     0.858575  0.000521936 -1.32398e-05 
         950      3.55472     0.866156  0.000532245 -1.32301e-05 
         950      3.61273     0.873504  0.000542412 -1.32216e-05 
         950      3.67125     0.880627  0.000552503 -1.32152e-05 
         950      3.73025     0.887517  0.000562605 -1.32121e-05 
         950      3.78967     0.894162  0.000572407 -1.32041e-05 
         950      3.84961     0.900574  0.000581886 -1.31913e-05 
         950      3.90996     0.906742  0.000591167 -1.31776e-05 
         950      3.97084     0.912673  0.000600249 -1.31629e-05 
         950      4.03214     0.918358    0.0006091 -1.31475e-05 
         950      4.09395     0.923805   0.00061772 -1.31313e-05 
         950      4.15624     0.929011  0.000626089 -1.31144e-05 
         950      4.21895     0.933972   0.00063419 -1.30969e-05 
         950      4.28217       0.9387  0.000642026  -1.3079e-05 
         950      4.34582     0.943188  0.000649578 -1.30606e-05 
         950      4.40998     0.947448   0.00065685  -1.3042e-05 
         950      4.47457     0.951476  0.000663828 -1.30232e-05 
         950      4.53968     0.955284  0.000670518 -1.30044e-05 
         950      4.60525     0.958873  0.000676913 -1.29855e-05 
         950      4.67125     0.962246  0.000683009 -1.29669e-05 
         950      4.73777     0.965415  0.000688814 -1.29484e-05 
         950       4.8047     0.968379  0.000694323 -1.29302e-05 
         950      4.87216     0.971152  0.000699546 -1.29124e-05 
         950      4.94003     0.973735  0.000704478 -1.28951e-05 
         950      5.00843     0.976139  0.000709133 -1.28781e-05 
         950      5.07724     0.978368  0.000713509 -1.28617e-05 
         950      5.14658     0.980433  0.000717618 -1.28457e-05 
         950      5.21639      0.98234  0.000721465 -1.28302e-05 
         950      5.28661     0.984096  0.000725054 -1.28151e-05 
         950      5.35736      0.98571  0.000728399 -1.28004e-05 
         950      5.42852     0.987188  0.000731503 -1.27861e-05 
         950      5.50021     0.988539  0.000734381 -1.27721e-05 
         950      5.57231     0.989771  0.000737038 -1.27583e-05 
         950      5.64493     0.990891  0.000739487 -1.27445e-05 
         950      5.71803     0.991906  0.000741737 -1.27308e-05 
         950      5.79154     0.992824  0.000743795 -1.27171e-05 
         950      5.86558     0.993651  0.000745676 -1.27031e-05 
         950      5.94003     0.994394  0.000747387 -1.26888e-05 
         950      6.01501     0.995061  0.000748941 -1.26741e-05 
         950       6.0904     0.995656  0.000750345  -1.2659e-05 
         950      6.16632     0.996186  0.000751612 -1.26432e-05 
         950      6.24271     0.996658  0.000752752 -1.26268e-05 
         950       6.3195     0.997075  0.000753772 -1.26097e-05 
         950      6.39683     0.997443  0.000754685 -1.25918e-05 
         950      6.47457     0.997767  0.000755497 -1.25732e-05 
         950      6.55284     0.998052   0.00075622 -1.25538e-05 
         950      6.63152     0.998301   0.00075686 -1.25338e-05 
         950      6.71073     0.998518  0.000757427  -1.2513e-05 
         950      6.79034     0.998707  0.000757927 -1.24917e-05 
         950      6.87049     0.998871  0.000758369   -1.247e-05 
         950      6.95111     0.999013  0.000758758  -1.2448e-05 
         950      7.03214     0.999135  0.000759099 -1.24259e-05 
         950       7.1137     0.999239    0.0007594 -1.24038e-05 
         950      7.19566     0.999329  0.000759665 -1.23821e-05 
         950      7.27816     0.999405  0.000759897 -1.23608e-05 
         950      7.36106      0.99947    0.0007601 -1.23402e-05 
         950      7.44451     0.999524  0.000760278 -1.23205e-05 
         950      7.52842      0.99957  0.000760432 -1.23017e-05 
         950      7.61273     0.999609  0.000760564  -1.2284e-05 
         950      7.69758     0.999641  0.000760677 -1.22674e-05 
         950      7.78283     0.999667   0.00076077 -1.22517e-05 
         950      7.86862     0.999688  0.000760845 -1.22366e-05 
         950      7.95481     0.999706  0.000760902 -1.22216e-05 
         950      8.04155     0.999721  0.000760942 -1.22061e-05 
         950      8.12868     0.999732  0.000760967  -1.2189e-05 
         950      8.21635     0.999742  0.000760978 -1.21689e-05 
         950      8.30449      0.99975  0.000760978 -1.21441e-05 
         950      8.39303     0.999757  0.000760971 -1.21123e-05 
         950      8.48211     0.999763  0.000760964 -1.20705e-05 
         950      8.57159     0.999769  0.000760966 -1.20153e-05 
         950      8.66161     0.999773   0.00076099 -1.19421e-05 
         950      8.75203     0.999777  0.000761053 -1.18457e-05 
         950      8.84299      0.99978  0.000761176 -1.17197e-05 
         950      8.93443     0.999781  0.000761388 -1.15566e-05 
         950      9.02626     0.999777  0.000761662  -1.1648e-05 
         950      9.11863     0.999781  0.000761456  -1.1716e-05 
         950      9.21139     0.999784  0.000761223 -1.17466e-05 
         950      9.30471     0.999787  0.000761096 -1.17799e-05 
         950      9.39841     0.999788  0.000761041 -1.18116e-05 
         950      9.49267     0.999789  0.000761034 -1.18317e-05 
         950      9.58739     0.999789  0.000761061  -1.1841e-05 
         950      9.68251     0.999789  0.000761108 -1.18404e-05 
         950      9.77817     0.999789  0.000761167  -1.1831e-05 
         950      9.87422     0.999789   0.00076123  -1.1814e-05 
         950      9.97083     0.999788  0.000761292 -1.17906e-05 
         950      10.0678     0.999788  0.000761349 -1.17619e-05 
         950      10.1654     0.999789  0.000761398 -1.17289e-05 
         950      10.2633     0.999789  0.000761439  -1.1693e-05 
         950      10.3618     0.999789   0.00076147 -1.16551e-05 
         950      10.4607     0.999789  0.000761493 -1.16162e-05 
         950      10.5601      0.99979  0.000761507 -1.15772e-05 
         950        10.66     0.999791  0.000761514 -1.15388e-05 
         950      10.7603     0.999791  0.000761515 -1.15018e-05 
         950      10.8611     0.999792  0.000761512 -1.14667e-05 
         950      10.9623     0.999793  0.000761507 -1.14339e-05 
         950      11.0641     0.999793    0.0007615 -1.14036e-05 
         950      11.1663     0.999794  0.000761493 -1.13762e-05 
         950       11.269     0.999794  0.000761488 -1.13515e-05 
         950      11.3721     0.999795  0.000761484 -1.13295e-05 
         950      11.4757     0.999795  0.000761483 -1.13101e-05 
         950      11.5798     0.999796  0.000761485  -1.1293e-05 
         950      11.6844     0.999796   0.00076149 -1.12776e-05 
         950      11.7894     0.999796  0.000761498 -1.12637e-05 
         950       11.895     0.999796  0.000761508 -1.12506e-05 
         950      12.0009     0.999797  0.000761522 -1.12379e-05 
         950      12.1073     0.999797  0.000761536 -1.12249e-05 
         950      12.2142     0.999797  0.000761552 -1.12111e-05 
         950      12.3216     0.999797  0.000761568 -1.11959e-05 
         950      12.4294     0.999797  0.000761584 -1.11789e-05 
         950      12.5378     0.999797  0.000761599 -1.11594e-05 
         950      12.6465     0.999798  0.000761613 -1.11372e-05 
         950      12.7558     0.999798  0.000761625 -1.11119e-05 
         950      12.8656     0.999798  0.000761635 -1.10835e-05 
         950      12.9757     0.999799  0.000761643 -1.10518e-05 
         950      13.0864     0.999799   0.00076165  -1.1017e-05 
         950      13.1975       0.9998  0.000761655 -1.09794e-05 
         950      13.3092       0.9998   0.00076166 -1.09392e-05 
         950      13.4212     0.999801  0.000761666  -1.0897e-05 
         950      13.5338     0.999801  0.000761673 -1.08535e-05 
         950      13.6468     0.999802  0.000761683 -1.08093e-05 
         950      13.7603     0.999802  0.000761695 -1.07654e-05 
         950      13.8743     0.999803  0.000761712 -1.07224e-05 
         950      13.9886     0.999803  0.000761733 -1.06813e-05 
         950      14.1036     0.999804  0.000761759 -1.06427e-05 
         950      14.2189     0.999804  0.000761789 -1.06071e-05 
         950      14.3348     0.999805  0.000761821 -1.05747e-05 
         950       14.451     0.999805  0.000761853 -1.05453e-05 
         950      14.5678     0.999805  0.000761882 -1.05181e-05 
         950      14.6851     0.999806  0.000761901 -1.04917e-05 
         950      14.8028     0.999806  0.000761904 -1.04635e-05 
         950       14.921     0.999806  0.000761882 -1.04301e-05 
         950      15.0396     0.999806  0.000761823 -1.03864e-05 
         950      15.1588     0.999805  0.000761846 -1.03677e-05 
         950      15.2783     0.999806  0.000761902 -1.03592e-05 
         950      15.3984     0.999806  0.000761938 -1.03406e-05 
         950       15.519     0.999807  0.000761968 -1.03144e-05 
         950        15.64     0.999807     0.000762 -1.02836e-05 
         950      15.7615     0.999808  0.000762037 -1.02513e-05 
         950      15.8834     0.999809  0.000762075 -1.02206e-05 
         950      16.0058      0.99981   0.00076211 -1.01945e-05 
         950      16.1286     0.999811  0.000762131 -1.01757e-05 
         950       16.252     0.999811   0.00076213 -1.01656e-05 
         950      16.3759     0.999811  0.000762096 -1.01641e-05 
         950      16.5002     0.999811  0.000762032 -1.01688e-05 
         950       16.625     0.999811  0.000761948 -1.01735e-05 
         950      16.7501     0.999811  0.000761883  -1.0168e-05 
         950      16.8759     0.999812   0.00076191 -1.01359e-05 
         950       17.002     0.999814  0.000762161 -1.00538e-05 
         950      17.1287     0.999813  0.000761984  -1.0051e-05 
         950      17.2557     0.999813  0.000761853 -1.00576e-05 
         950      17.3834     0.999813  0.000761841 -1.00523e-05 
         950      17.5115     0.999814  0.000761894  -1.0039e-05 
         950      17.6399     0.999815  0.000761973 -1.00209e-05 
         950       17.769     0.999815  0.000762057 -1.00003e-05 
         950      17.8984     0.999816  0.000762131 -9.97876e-06 
         950      18.0284     0.999817   0.00076219 -9.95697e-06 
         950      18.1587     0.999817  0.000762233 -9.93528e-06 
         950      18.2896     0.999818  0.000762262 -9.91344e-06 
         950       18.421     0.999818  0.000762282 -9.89091e-06 
         950      18.5528     0.999819  0.000762296  -9.8669e-06 
         950      18.6851     0.999819  0.000762307 -9.84041e-06 
         950      18.8178     0.999819  0.000762319 -9.81046e-06 
         950      18.9511      0.99982  0.000762332 -9.77605e-06 
         950      19.0847      0.99982  0.000762347 -9.73642e-06 
         950      19.2189      0.99982  0.000762363 -9.69093e-06 
         950      19.3535     0.999821   0.00076238  -9.6394e-06 
         950      19.4886     0.999821  0.000762395  -9.5819e-06 
         950      19.6242     0.999822  0.000762406 -9.51907e-06 
         950      19.7602     0.999822  0.000762413  -9.4521e-06 
         950      19.8968     0.999823  0.000762415  -9.3826e-06 
         950      20.0337     0.999823  0.000762412 -9.31297e-06 
         950      20.1712     0.999824  0.000762404 -9.24601e-06 
         950      20.3091     0.999824  0.000762395 -9.18534e-06 
         950      20.4475     0.999824  0.000762386 -9.13494e-06 
         950      20.5864     0.999825  0.000762381 -9.09951e-06 
         950      20.7257     0.999825  0.000762382 -9.08414e-06 
         950      20.8655     0.999826  0.000762393 -9.09425e-06 
         950      21.0058     0.999826  0.000762413 -9.13549e-06 
         950      21.1465     0.999827   0.00076242 -9.11283e-06 
         950      21.2877     0.999827  0.000762415 -9.01423e-06 
         950      21.4294     0.999828  0.000762422 -8.94136e-06 
         950      21.5716     0.999828  0.000762442 -8.89049e-06 
         950      21.7142     0.999829  0.000762475 -8.85783e-06 
         950      21.8573     0.999829  0.000762523 -8.83956e-06 
         950      22.0008      0.99983  0.000762582 -8.83198e-06 
         950      22.1449      0.99983  0.000762651 -8.83141e-06 
         950      22.2893     0.999831  0.000762723 -8.83432e-06 
         950      22.4344     0.999831  0.000762791 -8.83735e-06 
         950      22.5797     0.999832  0.000762846 -8.83745e-06 
         950      22.7257     0.999832  0.000762879 -8.83194e-06 
         950      22.8721     0.999832  0.000762878 -8.81871e-06 
         950      23.0189     0.999833  0.000762838 -8.79638e-06 
         950      23.1663     0.999833  0.000762756 -8.76442e-06 
         950       23.314     0.999834  0.000762636 -8.72355e-06 
         950      23.4623     0.999834  0.000762497 -8.67575e-06 
         950       23.611     0.999835  0.000762372 -8.62485e-06 
         950      23.7602     0.999836  0.000762321 -8.57656e-06 
         950        23.91     0.999836  0.000762433 -8.53911e-06 
         950        24.06     0.999837  0.000762839 -8.52347e-06 
         950      24.2107     0.999837  0.000763724 -8.54388e-06 
         950      24.3617     0.999837     0.000763 -8.45596e-06 
         950      24.5133     0.999838  0.000762623 -8.39426e-06 
         950      24.6653     0.999838   0.00076255 -8.35787e-06 
         950      24.8178     0.999839  0.000762644 -8.33763e-06 
         950      24.9708     0.999839  0.000762806 -8.32643e-06 
         950      25.1242      0.99984   0.00076297 -8.31877e-06 
         950      25.2781     0.999841  0.000763099 -8.31061e-06 
         950      25.4324     0.999841  0.000763174 -8.29913e-06 
         950      25.5873     0.999842   0.00076319 -8.28253e-06 
         950      25.7426     0.999842  0.000763154 -8.25988e-06 
         950      25.8984     0.999843  0.000763078 -8.23086e-06 
         950      26.0546     0.999843  0.000762976 -8.19576e-06 
         950      26.2114     0.999844  0.000762864 -8.15514e-06 
         950      26.3686     0.999845  0.000762759 -8.10991e-06 
         950      26.5262     0.999845   0.00076267 -8.06116e-06 
         950      26.6844     0.999846  0.000762609 -8.00991e-06 
         950      26.8429     0.999846  0.000762581 -7.95735e-06 
         950       27.002     0.999847  0.000762588 -7.90443e-06 
         950      27.1615     0.999847  0.000762628 -7.85215e-06 
         950      27.3216     0.999848  0.000762697 -7.80122e-06 
         950      27.4821     0.999848  0.000762789 -7.75227e-06 
         950       27.643     0.999849  0.000762896 -7.70577e-06 
         950      27.8044     0.999849  0.000763009  -7.6619e-06 
         950      27.9663      0.99985  0.000763118 -7.62082e-06 
         950      28.1287      0.99985  0.000763216 -7.58237e-06 
         950      28.2914     0.999851  0.000763295 -7.54642e-06 
         950      28.4548     0.999851  0.000763351  -7.5126e-06 
         950      28.6185     0.999852  0.000763379  -7.4806e-06 
         950      28.7828     0.999853   0.00076338 -7.44992e-06 
         950      28.9475     0.999853  0.000763356 -7.42018e-06 
         950      29.1126     0.999854   0.00076331 -7.39096e-06 
         950      29.2784     0.999854  0.000763249 -7.36183e-06 
         950      29.4444     0.999855   0.00076318 -7.33248e-06 
         950       29.611     0.999855  0.000763112 -7.30258e-06 
         950       29.778     0.999856  0.000763052 -7.27189e-06 
         950      29.9456     0.999857  0.000763008  -7.2401e-06 
         950      30.1137     0.999857  0.000762986 -7.20689e-06 
         950      30.2821     0.999858  0.000762991 -7.17185e-06 
         950      30.4511     0.999859  0.000763022 -7.13421e-06 
         950      30.6204     0.999859  0.000763081 -7.09297e-06 
         950      30.7903      0.99986  0.000763164 -7.04644e-06 
         950      30.9606      0.99986  0.000763267 -6.99231e-06 
         950      31.1315     0.999861  0.000763391 -6.92708e-06 
         950      31.3028     0.999861  0.000763537 -6.84602e-06 
         950      31.4745     0.999861  0.000763719 -6.74276e-06 
         950      31.6468     0.999861  0.000763949 -6.61353e-06 
         950      31.8194     0.999862  0.000763385 -6.68897e-06 
         950      31.9926     0.999863  0.000763116  -6.7046e-06 
         950      32.1662     0.999863  0.000763553  -6.6626e-06 
         950      32.3404     0.999864  0.000764154 -6.61872e-06 
         950      32.5149     0.999865  0.000763742 -6.62457e-06 
         950        32.69     0.999866  0.000763485 -6.62346e-06 
         950      32.8655     0.999866  0.000763348 -6.61677e-06 
         950      33.0414     0.999867  0.000763301 -6.60558e-06 
         950       33.218     0.999868  0.000763315 -6.59067e-06 
         950      33.3948     0.999868  0.000763368 -6.57268e-06 
         950      33.5723     0.999869  0.000763444 -6.55199e-06 
         950        33.75     0.999869  0.000763526 -6.52892e-06 
         950      33.9284      0.99987  0.000763605 -6.50362e-06 
         950      34.1073     0.999871  0.000763673 -6.47622e-06 
         950      34.2865     0.999871  0.000763724 -6.44678e-06 
         950      34.4663     0.999872  0.000763755 -6.41529e-06 
         950      34.6465     0.999872  0.000763767 -6.38182e-06 
         950      34.8272     0.999873   0.00076376 -6.34635e-06 
         950      35.0083     0.999874  0.000763736 -6.30898e-06 
         950        35.19     0.999874  0.000763699 -6.26972e-06 
         950      35.3721     0.999875  0.000763652 -6.22874e-06 
         950      35.5546     0.999876    0.0007636 -6.18621e-06 
         950      35.7377     0.999876  0.000763547 -6.14227e-06 
         950      35.9211     0.999877  0.000763497 -6.09724e-06 
         950      36.1052     0.999878  0.000763455 -6.05132e-06 
         950      36.2895     0.999878  0.000763423  -6.0049e-06 
         950      36.4745     0.999879  0.000763404 -5.95825e-06 
         950      36.6598      0.99988    0.0007634 -5.91177e-06 
         950      36.8457      0.99988  0.000763412 -5.86577e-06 
         950      37.0321     0.999881   0.00076344 -5.82062e-06 
         950      37.2188     0.999882  0.000763483  -5.7767e-06 
         950      37.4062     0.999882   0.00076354 -5.73421e-06 
         950      37.5938     0.999883  0.000763607 -5.69348e-06 
         950      37.7821     0.999883  0.000763682 -5.65463e-06 
         950      37.9707     0.999884  0.000763761 -5.61785e-06 
         950      38.1599     0.999885   0.00076384 -5.58309e-06 
         950      38.3496     0.999885  0.000763914 -5.55033e-06 
         950      38.5396     0.999886   0.00076398 -5.51944e-06 
         950      38.7302     0.999887  0.000764033 -5.49009e-06 
         950      38.9211     0.999887  0.000764069 -5.46195e-06 
         950      39.1127     0.999888  0.000764086 -5.43451e-06 
         950      39.3046     0.999888  0.000764083 -5.40722e-06 
         950      39.4971     0.999889  0.000764058 -5.37936e-06 
         950      39.6899      0.99989  0.000764013 -5.35025e-06 
         950      39.8833     0.999891  0.000763949 -5.31905e-06 
         950      40.0772     0.999891   0.00076387 -5.28498e-06 
         950      40.2714     0.999892  0.000763782 -5.24729e-06 
         950      40.4663     0.999893  0.000763691  -5.2052e-06 
         950      40.6615     0.999893  0.000763606 -5.15821e-06 
         950      40.8573     0.999894  0.000763534 -5.10584e-06 
         950      41.0534     0.999895  0.000763486 -5.04807e-06 
         950      41.2501     0.999896  0.000763469 -4.98507e-06 
         950      41.4473     0.999896  0.000763493 -4.91762e-06 
         950      41.6448     0.999897  0.000763562  -4.8471e-06 
         950      41.8429     0.999898  0.000763677 -4.77547e-06 
         950      42.0414     0.999898  0.000763835 -4.70581e-06 
         950      42.2405     0.999899  0.000764025 -4.64201e-06 
         950      42.4399       0.9999  0.000764224 -4.58947e-06 
         950      42.6399       0.9999    0.0007644 -4.55483e-06 
         950      42.8404     0.999901  0.000764502 -4.54663e-06 
         950      43.0412     0.999901  0.000764458 -4.57525e-06 
         950      43.2426     0.999902  0.000764176 -4.65344e-06 
         950      43.4444     0.999902  0.000763531 -4.79632e-06 
         950      43.6467     0.999903  0.000762363 -5.02229e-06 
         950      43.8494     0.999904  0.000762565 -4.76713e-06 
         950      44.0527     0.999905  0.000763534 -4.43659e-06 
         950      44.2563     0.999906   0.00076548 -4.10483e-06 
         950      44.4606     0.999906  0.000765062 -3.95379e-06 
         950      44.6653     0.999906  0.000764481 -3.84137e-06 
         950      44.8704     0.999907  0.000764157   -3.735e-06 
         950       45.076     0.999907  0.000763977 -3.63098e-06 
         950       45.282     0.999908  0.000763856 -3.52617e-06 
         950      45.4886     0.999909  0.000763732 -3.41726e-06 
         950      45.6955      0.99991  0.000763822 -3.41384e-06 
         950       45.903     0.999911  0.000764055 -3.48936e-06 
         950      46.1111     0.999911  0.000764242 -3.55976e-06 
         950      46.3194     0.999912  0.000764383 -3.62212e-06 
         950      46.5283     0.999913  0.000764479 -3.67442e-06 
         950      46.7376     0.999913  0.000764533 -3.71512e-06 
         950      46.9475     0.999914  0.000764551 -3.74339e-06 
         950      47.1577     0.999915  0.000764539 -3.75879e-06 
         950      47.3685     0.999915  0.000764504 -3.76138e-06 
         950      47.5798     0.999916  0.000764451 -3.75153e-06 
         950      47.7914     0.999917  0.000764388 -3.72993e-06 
         950      48.0037     0.999917  0.000764321 -3.69748e-06 