Variables = x, y, u, v, p

Zone, I=400, F=POINT
         150            0            0            0 -3.22084e-05 
         150     0.000471  0.000224394  5.55832e-11 -3.22081e-05 
         150     0.001884  0.000897575  8.89335e-10 -3.22074e-05 
         150     0.004239   0.00201955  4.50229e-09 -3.22062e-05 
         150     0.007537   0.00359078  1.42334e-08 -3.22046e-05 
         150     0.011776   0.00561033  3.47468e-08 -3.22025e-05 
         150     0.016958   0.00807916   7.2057e-08 -3.21999e-05 
         150     0.023081    0.0109963  1.33489e-07 -3.21968e-05 
         150      0.03015    0.0143641  2.27784e-07 -3.21933e-05 
         150     0.038157    0.0181789  3.64845e-07 -3.21892e-05 
         150     0.047107    0.0224429  5.56089e-07 -3.21848e-05 
         150     0.056999    0.0271557  8.14183e-07 -3.21798e-05 
         150     0.067837    0.0323192  1.15328e-06 -3.21744e-05 
         150     0.079614      0.03793  1.58854e-06 -3.21685e-05 
         150     0.092332     0.043989  2.13668e-06 -3.21621e-05 
         150     0.105992    0.0504967  2.81576e-06 -3.21552e-05 
         150       0.1206    0.0574557  3.64551e-06 -3.21479e-05 
         150     0.136145    0.0648608    4.646e-06 -3.21401e-05 
         150     0.152631    0.0727136  5.83944e-06 -3.21318e-05 
         150     0.170067    0.0810182  7.24989e-06  -3.2123e-05 
         150     0.188438     0.089767   8.9008e-06 -3.21138e-05 
         150     0.207751    0.0989629  1.08186e-05 -3.21041e-05 
         150     0.228006     0.108605  1.30306e-05 -3.20939e-05 
         150     0.249212     0.118698  1.55663e-05 -3.20832e-05 
         150     0.271351     0.129231  1.84533e-05  -3.2072e-05 
         150     0.294433     0.140208  2.17235e-05 -3.20604e-05 
         150     0.318456     0.151628  2.54089e-05 -3.20482e-05 
         150     0.343432     0.163492  2.95445e-05 -3.20355e-05 
         150     0.369339      0.17579  3.41607e-05 -3.20224e-05 
         150     0.396189     0.188525  3.92947e-05 -3.20087e-05 
         150     0.423981     0.201691  4.49822e-05 -3.19945e-05 
         150     0.452726     0.215293  5.12623e-05 -3.19797e-05 
         150     0.482403     0.229314  5.81677e-05 -3.19644e-05 
         150     0.513021     0.243755  6.57377e-05 -3.19485e-05 
         150     0.544594     0.258615  7.40142e-05 -3.19321e-05 
         150     0.577096     0.273877  8.30281e-05  -3.1915e-05 
         150     0.610541     0.289539  9.28206e-05 -3.18973e-05 
         150     0.644927      0.30559  0.000103428 -3.18789e-05 
         150      0.68027     0.322029  0.000114893 -3.18599e-05 
         150     0.716541      0.33883   0.00012724 -3.18401e-05 
         150     0.753754     0.355986  0.000140508 -3.18196e-05 
         150     0.791909     0.373483  0.000154728 -3.17983e-05 
         150     0.831022     0.391312  0.000169935 -3.17761e-05 
         150     0.871061     0.409439  0.000186144  -3.1753e-05 
         150     0.912043     0.427852  0.000203383 -3.17289e-05 
         150     0.953966     0.446528  0.000221669 -3.17039e-05 
         150     0.996849     0.465451  0.000241027 -3.16777e-05 
         150      1.04066     0.484577  0.000261447 -3.16503e-05 
         150      1.08541     0.503885  0.000282942 -3.16217e-05 
         150      1.13112     0.523351  0.000305516 -3.15917e-05 
         150      1.17775     0.542925  0.000329141 -3.15603e-05 
         150      1.22533     0.562579  0.000353807 -3.15274e-05 
         150      1.27384     0.582272  0.000379487 -3.14928e-05 
         150      1.32333     0.601973  0.000406157 -3.14565e-05 
         150      1.37373      0.62162  0.000433753 -3.14184e-05 
         150      1.42507     0.641177  0.000462229 -3.13784e-05 
         150      1.47736     0.660595  0.000491523 -3.13362e-05 
         150      1.53061     0.679834  0.000521574 -3.12919e-05 
         150      1.58478     0.698828  0.000552273 -3.12453e-05 
         150      1.63989     0.717532  0.000583537 -3.11963e-05 
         150      1.69595     0.735895  0.000615266 -3.11449e-05 
         150      1.75297     0.753874  0.000647359 -3.10909e-05 
         150      1.81091     0.771402  0.000679672 -3.10342e-05 
         150      1.86979     0.788438  0.000712087 -3.09747e-05 
         150      1.92964     0.804939  0.000744482 -3.09123e-05 
         150       1.9904     0.820846  0.000776689  -3.0847e-05 
         150      2.05211     0.836124  0.000808578 -3.07788e-05 
         150      2.11476     0.850734  0.000840001 -3.07075e-05 
         150      2.17838     0.864648  0.000870826 -3.06331e-05 
         150      2.24291     0.877825  0.000900884 -3.05557e-05 
         150      2.30839     0.890247  0.000930051 -3.04753e-05 
         150       2.3748     0.901898  0.000958196 -3.03917e-05 
         150      2.44219     0.912771  0.000985208 -3.03051e-05 
         150      2.51049     0.922852   0.00101096 -3.02155e-05 
         150      2.57974     0.932148   0.00103536 -3.01229e-05 
         150      2.64993     0.940669   0.00105834 -3.00274e-05 
         150      2.72108     0.948433   0.00107985  -2.9929e-05 
         150      2.79315     0.955455   0.00109981 -2.98279e-05 
         150      2.86617     0.961766   0.00111823  -2.9724e-05 
         150      2.94012     0.967399   0.00113509 -2.96176e-05 
         150      3.01505     0.972391   0.00115042 -2.95085e-05 
         150      3.09089      0.97678   0.00116424 -2.93971e-05 
         150      3.16767     0.980611    0.0011766 -2.92834e-05 
         150      3.24542     0.983929   0.00118757 -2.91674e-05 
         150      3.32409     0.986777   0.00119723 -2.90494e-05 
         150       3.4037     0.989204   0.00120564 -2.89294e-05 
         150      3.48425     0.991252   0.00121292 -2.88073e-05 
         150      3.56577     0.992966   0.00121916 -2.86833e-05 
         150       3.6482     0.994387   0.00122445 -2.85572e-05 
         150      3.73158     0.995554    0.0012289  -2.8429e-05 
         150       3.8159     0.996504    0.0012326 -2.82993e-05 
         150      3.90119      0.99727   0.00123566 -2.81681e-05 
         150       3.9874      0.99788   0.00123815 -2.80354e-05 
         150      4.07454     0.998362   0.00124016 -2.79012e-05 
         150      4.16263     0.998738   0.00124177 -2.77656e-05 
         150      4.25169     0.999029   0.00124305 -2.76282e-05 
         150      4.34166     0.999252   0.00124405  -2.7489e-05 
         150      4.43258      0.99942   0.00124482 -2.73479e-05 
         150      4.52447     0.999545   0.00124541 -2.72048e-05 
         150      4.61726     0.999638   0.00124587 -2.70606e-05 
         150        4.711     0.999705   0.00124621 -2.69157e-05 
         150      4.80569     0.999754   0.00124646   -2.677e-05 
         150      4.90135     0.999789   0.00124665 -2.66211e-05 
         150      4.99791     0.999813   0.00124679 -2.64709e-05 
         150      5.09542      0.99983    0.0012469 -2.63189e-05 
         150      5.19387     0.999842   0.00124698  -2.6166e-05 
         150       5.2933      0.99985   0.00124704 -2.60138e-05 
         150      5.39364     0.999856   0.00124708 -2.58583e-05 
         150      5.49491     0.999859   0.00124711 -2.57005e-05 
         150      5.59713     0.999862   0.00124714 -2.55409e-05 
         150      5.70033     0.999864   0.00124717 -2.53797e-05 
         150      5.80443     0.999865    0.0012472  -2.5217e-05 
         150      5.90948     0.999866   0.00124722 -2.50526e-05 
         150      6.01551     0.999866   0.00124723 -2.48871e-05 
         150      6.12244     0.999867   0.00124725 -2.47208e-05 
         150      6.23031     0.999867   0.00124727 -2.45532e-05 
         150      6.33912     0.999868   0.00124729 -2.43839e-05 
         150      6.44892     0.999868   0.00124731 -2.42128e-05 
         150      6.55962     0.999869   0.00124733 -2.40403e-05 
         150      6.67126     0.999869   0.00124734 -2.38665e-05 
         150      6.78384      0.99987   0.00124736  -2.3691e-05 
         150      6.89741      0.99987   0.00124738 -2.35141e-05 
         150      7.01187      0.99987    0.0012474 -2.33352e-05 
         150      7.12728     0.999871   0.00124742 -2.31544e-05 
         150      7.24363     0.999871   0.00124744  -2.2973e-05 
         150      7.36097     0.999872   0.00124745 -2.27885e-05 
         150       7.4792     0.999872   0.00124747 -2.26034e-05 
         150      7.59838     0.999872    0.0012475 -2.24176e-05 
         150      7.71854     0.999873   0.00124752 -2.22307e-05 
         150       7.8396     0.999873   0.00124753 -2.20424e-05 
         150      7.96161     0.999874   0.00124754 -2.18521e-05 
         150      8.08455     0.999874   0.00124755 -2.16596e-05 
         150      8.20849     0.999875   0.00124757 -2.14648e-05 
         150      8.33332     0.999875   0.00124759 -2.12685e-05 
         150      8.45909     0.999876   0.00124761 -2.10712e-05 
         150       8.5858     0.999876   0.00124763 -2.08731e-05 
         150      8.71351     0.999877   0.00124767 -2.06727e-05 
         150       8.8421     0.999877   0.00124766 -2.04717e-05 
         150      8.97164     0.999878   0.00124768 -2.02671e-05 
         150      9.10212     0.999878    0.0012477 -2.00619e-05 
         150       9.2336     0.999879   0.00124772 -1.98567e-05 
         150      9.36596     0.999879   0.00124773 -1.96515e-05 
         150      9.49927      0.99988   0.00124774 -1.94453e-05 
         150      9.63352      0.99988   0.00124776 -1.92371e-05 
         150      9.76877     0.999881   0.00124778 -1.90262e-05 
         150       9.9049     0.999881    0.0012478 -1.88124e-05 
         150       10.042     0.999882   0.00124781 -1.85955e-05 
         150      10.1801     0.999882   0.00124782  -1.8376e-05 
         150       10.319     0.999883   0.00124784 -1.81546e-05 
         150      10.4589     0.999883   0.00124786 -1.79319e-05 
         150      10.5998     0.999884   0.00124789 -1.77082e-05 
         150      10.7416     0.999884   0.00124792 -1.74835e-05 
         150      10.8843     0.999885   0.00124794  -1.7258e-05 
         150       11.028     0.999885   0.00124793 -1.70389e-05 
         150      11.1726     0.999886   0.00124792 -1.68224e-05 
         150      11.3182     0.999887   0.00124798 -1.65918e-05 
         150      11.4647     0.999887   0.00124796  -1.6356e-05 
         150      11.6122     0.999888   0.00124797 -1.61247e-05 
         150      11.7605     0.999888   0.00124801 -1.58868e-05 
         150      11.9099     0.999889   0.00124803 -1.56508e-05 
         150      12.0602     0.999889   0.00124803 -1.54154e-05 
         150      12.2114      0.99989   0.00124803 -1.51784e-05 
         150      12.3636     0.999891   0.00124804 -1.49381e-05 
         150      12.5167     0.999891   0.00124805 -1.46945e-05 
         150      12.6707     0.999892   0.00124809 -1.44491e-05 
         150      12.8257     0.999892   0.00124812 -1.42041e-05 
         150      12.9817     0.999893   0.00124813 -1.39604e-05 
         150      13.1386     0.999894   0.00124812  -1.3717e-05 
         150      13.2964     0.999894   0.00124812   -1.347e-05 
         150      13.4551     0.999895   0.00124815 -1.32165e-05 
         150      13.6149     0.999896   0.00124818 -1.29613e-05 
         150      13.7755     0.999896   0.00124816 -1.27084e-05 
         150      13.9371     0.999897    0.0012482 -1.24494e-05 
         150      14.0996     0.999897    0.0012482 -1.21993e-05 
         150      14.2631     0.999898    0.0012482 -1.19445e-05 
         150      14.4275     0.999899   0.00124821  -1.1683e-05 
         150      14.5928     0.999899   0.00124822  -1.1419e-05 
         150      14.7592       0.9999   0.00124827 -1.11583e-05 
         150      14.9264     0.999901   0.00124825 -1.08902e-05 
         150      15.0946     0.999902   0.00124826 -1.06258e-05 
         150      15.2637     0.999902   0.00124827 -1.03611e-05 
         150      15.4338     0.999903   0.00124828 -1.00935e-05 
         150      15.6048     0.999903   0.00124828  -9.8221e-06 
         150      15.7767     0.999904   0.00124829 -9.54742e-06 
         150      15.9496     0.999905   0.00124831 -9.27099e-06 
         150      16.1235     0.999906   0.00124832 -8.99419e-06 
         150      16.2982     0.999907   0.00124832 -8.71749e-06 
         150      16.4739     0.999907   0.00124833 -8.43836e-06 
         150      16.6506     0.999908   0.00124832 -8.16122e-06 
         150      16.8282     0.999909   0.00124833 -7.88204e-06 
         150      17.0068     0.999909   0.00124834 -7.60008e-06 
         150      17.1862      0.99991   0.00124835  -7.3173e-06 
         150      17.3667     0.999911   0.00124836 -7.03288e-06 
         150      17.5481     0.999912   0.00124836 -6.74557e-06 
         150      17.7304     0.999912   0.00124836 -6.45432e-06 
         150      17.9136     0.999913   0.00124837 -6.15939e-06 
         150      18.0979     0.999914   0.00124837 -5.86221e-06 
         150       18.283     0.999914   0.00124837 -5.56534e-06 
         150      18.4691     0.999915   0.00124837 -5.27092e-06 
         150      18.6561     0.999916   0.00124837 -4.97992e-06 
         150      18.8441     0.999917   0.00124838  -4.6905e-06 
         150       19.033     0.999918   0.00124839 -4.39703e-06 
         150      19.2228     0.999918   0.00124839 -4.08807e-06 
         150      19.4136     0.999919   0.00124834 -3.75716e-06 
         150      19.6054      0.99992    0.0012484  -3.4951e-06 
         150       19.798     0.999921    0.0012484 -3.19674e-06 
         150      19.9917     0.999921   0.00124838   -2.889e-06 
         150      20.1862     0.999922   0.00124835 -2.58519e-06 
         150      20.3818     0.999924   0.00124837 -2.26085e-06 
         150      20.5782     0.999924    0.0012484 -1.93087e-06 
         150      20.7756     0.999925   0.00124841 -1.61274e-06 
         150       20.974     0.999925   0.00124834 -1.30441e-06 
         150      21.1732     0.999926   0.00124833 -9.90018e-07 
         150      21.3734     0.999927   0.00124834 -6.72372e-07 
         150      21.5745     0.999928   0.00124835 -3.53553e-07 
         150      21.7767     0.999929   0.00124836 -3.45802e-08 
         150      21.9797      0.99993   0.00124838  2.84031e-07 
         150      22.1837     0.999931   0.00124839  6.02865e-07 
         150      22.3886     0.999932   0.00124839  9.22845e-07 
         150      22.5945     0.999932   0.00124837  1.24519e-06 
         150      22.8013     0.999933   0.00124832  1.57058e-06 
         150      23.0091     0.999934   0.00124826   1.8997e-06 
         150      23.2177     0.999935   0.00124823  2.23257e-06 
         150      23.4274     0.999936   0.00124825  2.56881e-06 
         150       23.638     0.999937   0.00124831  2.90736e-06 
         150      23.8495     0.999938   0.00124829  3.24449e-06 
         150       24.062     0.999938   0.00124832  3.57333e-06 
         150      24.2754     0.999939   0.00124827  3.90478e-06 
         150      24.4897      0.99994   0.00124823  4.23783e-06 
         150       24.705     0.999941   0.00124821  4.57275e-06 
         150      24.9213     0.999942    0.0012482  4.91039e-06 
         150      25.1385     0.999943    0.0012482  5.25121e-06 
         150      25.3566     0.999944   0.00124817  5.59576e-06 
         150      25.5756     0.999945   0.00124814  5.94418e-06 
         150      25.7957     0.999946    0.0012481  6.29669e-06 
         150      26.0166     0.999946   0.00124806  6.65339e-06 
         150      26.2385     0.999947   0.00124803  7.01561e-06 
         150      26.4613     0.999948     0.001248  7.38586e-06 
         150      26.6851     0.999949   0.00124798  7.76513e-06 
         150      26.9098      0.99995   0.00124808  8.12245e-06 
         150      27.1354     0.999951   0.00124812  8.47264e-06 
         150      27.3621     0.999952    0.0012481  8.81837e-06 
         150      27.5896     0.999953   0.00124802  9.16144e-06 
         150      27.8181     0.999953    0.0012479  9.50456e-06 
         150      28.0475     0.999954    0.0012478  9.85075e-06 
         150      28.2779     0.999955   0.00124778  1.02025e-05 
         150      28.5092     0.999956   0.00124784  1.05585e-05 
         150      28.7414     0.999957   0.00124791  1.09111e-05 
         150      28.9746     0.999959   0.00124763  1.12395e-05 
         150      29.2088      0.99996   0.00124791  1.16469e-05 
         150      29.4439      0.99996   0.00124784  1.20433e-05 
         150      29.6799      0.99996   0.00124768  1.24242e-05 
         150      29.9168     0.999961   0.00124759  1.27981e-05 
         150      30.1548     0.999963    0.0012476  1.31701e-05 
         150      30.3936     0.999964   0.00124765  1.35423e-05 
         150      30.6334     0.999965   0.00124767  1.39162e-05 
         150      30.8742     0.999966   0.00124764  1.42927e-05 
         150      31.1158     0.999967   0.00124755  1.46721e-05 
         150      31.3584     0.999967   0.00124745  1.50551e-05 
         150       31.602     0.999968   0.00124739  1.54424e-05 
         150      31.8465      0.99997   0.00124743  1.58344e-05 
         150      32.0919      0.99997   0.00124736  1.62615e-05 
         150      32.3383     0.999971   0.00124731  1.66693e-05 
         150      32.5856     0.999972   0.00124727  1.70571e-05 
         150       32.834     0.999973   0.00124725  1.74318e-05 
         150      33.0831     0.999974   0.00124723  1.78012e-05 
         150      33.3333     0.999975   0.00124722  1.81735e-05 
         150      33.5843     0.999976    0.0012472  1.85555e-05 
         150      33.8364     0.999976   0.00124715    1.895e-05 
         150      34.0894     0.999977   0.00124705   1.9352e-05 
         150      34.3433     0.999978   0.00124698  1.97472e-05 
         150      34.5981      0.99998   0.00124699  2.01381e-05 
         150       34.854      0.99998   0.00124688  2.05576e-05 
         150      35.1107     0.999982   0.00124691  2.09403e-05 
         150      35.3684     0.999983    0.0012469  2.13178e-05 
         150      35.6271     0.999983   0.00124682  2.17082e-05 
         150      35.8867     0.999984   0.00124668  2.21169e-05 
         150      36.1472     0.999985   0.00124654  2.25389e-05 
         150      36.4086     0.999986   0.00124645  2.29584e-05 
         150      36.6711     0.999988   0.00124651  2.33484e-05 
         150      36.9344     0.999989   0.00124676   2.3692e-05 
         150      37.1987     0.999989   0.00124652  2.41581e-05 
         150      37.4639      0.99999   0.00124636  2.46053e-05 
         150      37.7301     0.999991   0.00124625  2.50335e-05 
         150      37.9972     0.999991   0.00124618  2.54443e-05 
         150      38.2652     0.999992   0.00124612  2.58418e-05 
         150      38.5342     0.999993   0.00124608  2.62314e-05 
         150      38.8042     0.999994   0.00124605  2.66197e-05 
         150      39.0751     0.999995   0.00124603  2.70127e-05 
         150      39.3469     0.999997   0.00124602   2.7416e-05 
         150      39.6197     0.999999     0.001246  2.78338e-05 
         150      39.8934            1   0.00124594  2.82671e-05 
         150       40.168            1   0.00124583  2.87144e-05 
         150      40.4436            1   0.00124566  2.91705e-05 
         150      40.7202     0.999998   0.00124552  2.96262e-05 
         150      40.9977     0.999997    0.0012456  3.00675e-05 
         150      41.2761            1   0.00124537  3.04682e-05 
         150      41.5554            1   0.00124525  3.08573e-05 
         150      41.8358      1.00001    0.0012452  3.12474e-05 
         150       42.117      1.00001   0.00124518  3.16467e-05 
         150      42.3992      1.00001   0.00124516  3.20599e-05 
         150      42.6823      1.00001   0.00124512  3.24883e-05 
         150      42.9664      1.00001   0.00124505  3.29306e-05 
         150      43.2514      1.00001   0.00124495  3.33831e-05 
         150      43.5373      1.00001   0.00124483  3.38412e-05 
         150      43.8243      1.00001   0.00124469  3.42998e-05 
         150      44.1121      1.00001   0.00124457  3.47535e-05 
         150      44.4009      1.00001   0.00124445  3.51981e-05 
         150      44.6906      1.00001   0.00124437   3.5631e-05 
         150      44.9813      1.00002   0.00124431  3.60515e-05 
         150      45.2729      1.00002   0.00124427  3.64608e-05 
         150      45.5654      1.00002   0.00124424  3.68635e-05 
         150      45.8589      1.00002   0.00124422  3.72663e-05 
         150      46.1534      1.00002   0.00124418  3.76781e-05 
         150      46.4488      1.00002   0.00124411  3.81092e-05 
         150      46.7451      1.00002   0.00124403  3.85706e-05 
         150      47.0423      1.00002   0.00124397  3.90234e-05 
         150      47.3406      1.00002   0.00124378  3.94646e-05 
         150      47.6397      1.00002   0.00124351  3.99101e-05 
         150      47.9398      1.00002   0.00124324  4.03686e-05 
         150      48.2409      1.00002   0.00124303  4.08444e-05 
         150      48.5428      1.00003   0.00124297  4.13363e-05 
         150      48.8457      1.00003   0.00124307  4.18363e-05 
         150      49.1496      1.00003   0.00124328  4.23253e-05 
         150      49.4545      1.00003   0.00124336  4.27672e-05 
         150      49.7602      1.00003   0.00124278  4.30996e-05 
         150      50.0668      1.00003   0.00124258  4.36159e-05 
         150      50.3744      1.00003   0.00124292  4.41597e-05 
         150      50.6831      1.00003   0.00124289  4.45363e-05 
         150      50.9926      1.00003   0.00124271  4.48408e-05 
         150       51.303      1.00003   0.00124249  4.51531e-05 
         150      51.6144      1.00003    0.0012422  4.55438e-05 
         150      51.9268      1.00003   0.00124171  4.60794e-05 
         150        52.24      1.00004   0.00124163  4.64936e-05 
         150      52.5542      1.00004   0.00124163  4.69266e-05 
         150      52.8694      1.00004   0.00124158   4.7446e-05 
         150      53.1856      1.00004   0.00124154  4.80003e-05 
         150      53.5026      1.00004   0.00124152  4.85542e-05 
         150      53.8205      1.00004   0.00124152   4.9087e-05 
         150      54.1396      1.00004   0.00124151  4.95893e-05 
         150      54.4594      1.00004   0.00124145  5.00593e-05 
         150      54.7802      1.00004   0.00124134  5.05018e-05 
         150      55.1019      1.00004   0.00124116   5.0925e-05 
         150      55.4247      1.00004   0.00124093   5.1339e-05 
         150      55.7483      1.00004   0.00124067  5.17531e-05 
         150      56.0729      1.00005   0.00124041  5.21758e-05 
         150      56.3984      1.00005   0.00124018  5.26129e-05 
         150       56.725      1.00005   0.00124001  5.30671e-05 
         150      57.0523      1.00005   0.00123991   5.3537e-05 
         150      57.3807      1.00005   0.00123986  5.40185e-05 
         150      57.7099      1.00005   0.00123986  5.45046e-05 
         150      58.0403      1.00005   0.00123986  5.49869e-05 
         150      58.3714      1.00005    0.0012398  5.54569e-05 
         150      58.7035      1.00005   0.00123965  5.59088e-05 
         150      59.0367      1.00005   0.00123938  5.63425e-05 
         150      59.3707      1.00005   0.00123903  5.67665e-05 
         150      59.7056      1.00005   0.00123875  5.72031e-05 
         150      60.0414      1.00006   0.00123882  5.76931e-05 
         150      60.3784      1.00006    0.0012392  5.82396e-05 
         150      60.7161      1.00005   0.00123845  5.86645e-05 
         150      61.0548      1.00005   0.00123813  5.91225e-05 
         150      61.3944      1.00005   0.00123803  5.95987e-05 
         150      61.7351      1.00005   0.00123801  6.00821e-05 
         150      62.0767      1.00006   0.00123799   6.0565e-05 
         150      62.4191      1.00006   0.00123794   6.1043e-05 
         150      62.7625      1.00006   0.00123783  6.15146e-05 
         150       63.107      1.00006   0.00123768  6.19808e-05 
         150      63.4523      1.00006    0.0012375  6.24442e-05 
         150      63.7985      1.00006   0.00123731  6.29088e-05 
         150      64.1458      1.00006    0.0012371  6.33797e-05 
         150      64.4939      1.00006   0.00123689  6.38606e-05 
         150       64.843      1.00006   0.00123668  6.43543e-05 
         150      65.1929      1.00006   0.00123646    6.486e-05 
         150       65.544      1.00006   0.00123625  6.53722e-05 
         150      65.8959      1.00006   0.00123605   6.5877e-05 
         150      66.2487      1.00006    0.0012359  6.63509e-05 
         150      66.6025      1.00006    0.0012359  6.67565e-05 
         150      66.9573      1.00007   0.00123618  6.70389e-05 
         150       67.313      1.00007   0.00123574  6.76222e-05 
         150      67.6695      1.00007   0.00123535  6.81943e-05 
         150      68.0271      1.00007   0.00123512  6.87047e-05 
         150      68.3857      1.00007   0.00123498  6.91733e-05 
         150      68.7451      1.00007   0.00123488  6.96155e-05 
         150      69.1055      1.00007   0.00123479  7.00441e-05 
         150      69.4669      1.00007   0.00123468  7.04682e-05 
         150      69.8291      1.00007   0.00123455  7.08942e-05 
         150      70.1923      1.00007   0.00123437  7.13266e-05 
         150      70.5564      1.00007   0.00123417  7.17677e-05 
         150      70.9217      1.00007   0.00123395  7.22189e-05 
         150      71.2877      1.00007   0.00123371    7.268e-05 
         150      71.6546      1.00007   0.00123348  7.31506e-05 
         150      72.0225      1.00007   0.00123325    7.363e-05 
         150      72.3915      1.00007   0.00123303  7.41171e-05 
         150      72.7613      1.00008   0.00123282  7.46102e-05 
         150       73.132      1.00008   0.00123262  7.51076e-05 
         150      73.5036      1.00009   0.00123243  7.56068e-05 
         150      73.8764      1.00009   0.00123224  7.61038e-05 
         150      74.2499      1.00008   0.00123208  7.65919e-05 
         150      74.6244      1.00005   0.00123198  7.70614e-05 
         150           75            1   0.00123201  7.74974e-05 
