Variables = x, y, u, v, p

Zone, I=400, F=POINT
          50            0            0            0 -7.29687e-05 
          50     0.000471  0.000258044  1.61691e-10  -7.2968e-05 
          50     0.001884   0.00103217  2.58649e-09 -7.29659e-05 
          50     0.004239   0.00232236  1.30895e-08 -7.29625e-05 
          50     0.007537   0.00412914    4.136e-08 -7.29577e-05 
          50     0.011776   0.00645137  1.00903e-07 -7.29515e-05 
          50     0.016958   0.00929011  2.09085e-07  -7.2944e-05 
          50     0.023081    0.0126442  3.86977e-07 -7.29352e-05 
          50      0.03015    0.0165163  6.59613e-07  -7.2925e-05 
          50     0.038157    0.0209019  1.05521e-06 -7.29135e-05 
          50     0.047107    0.0258037   1.6061e-06 -7.29007e-05 
          50     0.056999     0.031221  2.34789e-06 -7.28866e-05 
          50     0.067837    0.0371557  3.32009e-06 -7.28712e-05 
          50     0.079614    0.0436038  4.56452e-06 -7.28546e-05 
          50     0.092332    0.0505662  6.12694e-06 -7.28367e-05 
          50     0.105992    0.0580429  8.05612e-06 -7.28175e-05 
          50       0.1206    0.0660369  1.04046e-05 -7.27971e-05 
          50     0.136145    0.0745413  1.32248e-05 -7.27755e-05 
          50     0.152631    0.0835576  1.65739e-05 -7.27526e-05 
          50     0.170067    0.0930896  2.05123e-05 -7.27284e-05 
          50     0.188438     0.103128   2.5097e-05 -7.27028e-05 
          50     0.207751     0.113675  3.03908e-05 -7.26759e-05 
          50     0.228006     0.124728  3.64556e-05 -7.26476e-05 
          50     0.249212      0.13629  4.33564e-05 -7.26176e-05 
          50     0.271351     0.148348  5.11486e-05 -7.25859e-05 
          50     0.294433     0.160903  5.98949e-05 -7.25524e-05 
          50     0.318456     0.173951  6.96516e-05 -7.25167e-05 
          50     0.343432     0.187493  8.04775e-05 -7.24786e-05 
          50     0.369339      0.20151  9.24119e-05 -7.24379e-05 
          50     0.396189     0.216002  0.000105503 -7.23941e-05 
          50     0.423981     0.230961  0.000119787 -7.23467e-05 
          50     0.452726     0.246382  0.000135298 -7.22954e-05 
          50     0.482403     0.262245  0.000152045 -7.22394e-05 
          50     0.513021     0.278543  0.000170043 -7.21782e-05 
          50     0.544594      0.29527  0.000189302 -7.21111e-05 
          50     0.577096     0.312398  0.000209798 -7.20372e-05 
          50     0.610541      0.32992  0.000231523 -7.19557e-05 
          50     0.644927     0.347818  0.000254451 -7.18656e-05 
          50      0.68027     0.366082  0.000278563 -7.17661e-05 
          50     0.716541     0.384679  0.000303808  -7.1656e-05 
          50     0.753754     0.403596  0.000330161 -7.15343e-05 
          50     0.791909     0.422813  0.000357594 -7.13999e-05 
          50     0.831022     0.442314  0.000386092 -7.12515e-05 
          50     0.871061      0.46206  0.000415618 -7.10882e-05 
          50     0.912043     0.482033  0.000446177 -7.09087e-05 
          50     0.953966     0.502206  0.000477773 -7.07118e-05 
          50     0.996849     0.522556  0.000510435 -7.04963e-05 
          50      1.04066     0.543034  0.000544155 -7.02612e-05 
          50      1.08541     0.563612  0.000578969 -7.00051e-05 
          50      1.13112     0.584257  0.000614909 -6.97268e-05 
          50      1.17775     0.604908  0.000651955 -6.94252e-05 
          50      1.22533     0.625525  0.000690109 -6.90992e-05 
          50      1.27384     0.646055  0.000729342 -6.87474e-05 
          50      1.32333      0.66645   0.00076961 -6.83685e-05 
          50      1.37373     0.686633  0.000810793 -6.79618e-05 
          50      1.42507      0.70655  0.000852788  -6.7526e-05 
          50      1.47736     0.726139   0.00089545   -6.706e-05 
          50      1.53061     0.745341  0.000938629 -6.65626e-05 
          50      1.58478     0.764077  0.000982101 -6.60335e-05 
          50      1.63989     0.782292   0.00102567  -6.5472e-05 
          50      1.69595     0.799927   0.00106914 -6.48772e-05 
          50      1.75297     0.816931    0.0011123 -6.42487e-05 
          50      1.81091     0.833239   0.00115489 -6.35865e-05 
          50      1.86979     0.848808   0.00119673 -6.28905e-05 
          50      1.92964     0.863604   0.00123759 -6.21604e-05 
          50       1.9904     0.877578   0.00127726 -6.13971e-05 
          50      2.05211     0.890708   0.00131554 -6.06008e-05 
          50      2.11476     0.902975   0.00135226 -5.97722e-05 
          50      2.17838     0.914369   0.00138726 -5.89116e-05 
          50      2.24291     0.924878   0.00142038 -5.80206e-05 
          50      2.30839     0.934511   0.00145151 -5.71001e-05 
          50       2.3748     0.943282   0.00148056 -5.61509e-05 
          50      2.44219     0.951213   0.00150747 -5.51741e-05 
          50      2.51049     0.958326   0.00153219 -5.41716e-05 
          50      2.57974      0.96466   0.00155472 -5.31444e-05 
          50      2.64993     0.970255   0.00157508 -5.20938e-05 
          50      2.72108     0.975158   0.00159331 -5.10207e-05 
          50      2.79315     0.979416   0.00160949 -4.99272e-05 
          50      2.86617     0.983083   0.00162369 -4.88143e-05 
          50      2.94012     0.986212   0.00163605 -4.76831e-05 
          50      3.01505     0.988858   0.00164668 -4.65344e-05 
          50      3.09089     0.991073   0.00165572   -4.537e-05 
          50      3.16767     0.992909   0.00166332 -4.41907e-05 
          50      3.24542     0.994416   0.00166963 -4.29967e-05 
          50      3.32409      0.99564    0.0016748 -4.17899e-05 
          50       3.4037     0.996623   0.00167895 -4.05705e-05 
          50      3.48425     0.997404   0.00168223 -3.93392e-05 
          50      3.56577     0.998017   0.00168477 -3.80962e-05 
          50       3.6482     0.998493   0.00168668 -3.68428e-05 
          50      3.73158     0.998858   0.00168806 -3.55794e-05 
          50       3.8159     0.999134   0.00168902 -3.43055e-05 
          50      3.90119     0.999341   0.00168963 -3.30217e-05 
          50       3.9874     0.999493   0.00168996 -3.17293e-05 
          50      4.07454     0.999604   0.00169007 -3.04281e-05 
          50      4.16263     0.999684      0.00169 -2.91186e-05 
          50      4.25169      0.99974    0.0016898 -2.77995e-05 
          50      4.34166     0.999779   0.00168949 -2.64722e-05 
          50      4.43258     0.999806    0.0016891 -2.51382e-05 
          50      4.52447     0.999823   0.00168866 -2.37967e-05 
          50      4.61726     0.999835   0.00168816 -2.24481e-05 
          50        4.711     0.999842   0.00168763 -2.10924e-05 
          50      4.80569     0.999847   0.00168707 -1.97288e-05 
          50      4.90135     0.999849   0.00168649 -1.83596e-05 
          50      4.99791     0.999851   0.00168589  -1.6984e-05 
          50      5.09542     0.999851   0.00168527 -1.56013e-05 
          50      5.19387     0.999851   0.00168464 -1.42122e-05 
          50       5.2933     0.999851   0.00168399 -1.28171e-05 
          50      5.39364      0.99985   0.00168334 -1.14179e-05 
          50      5.49491     0.999849   0.00168267  -1.0013e-05 
          50      5.59713     0.999848   0.00168198 -8.60192e-06 
          50      5.70033     0.999848   0.00168129 -7.18719e-06 
          50      5.80443     0.999847   0.00168059 -5.76686e-06 
          50      5.90948     0.999846   0.00167988 -4.34331e-06 
          50      6.01551     0.999845   0.00167914  -2.9153e-06 
          50      6.12244     0.999844   0.00167841 -1.48287e-06 
          50      6.23031     0.999843   0.00167766 -4.56436e-08 
          50      6.33912     0.999842    0.0016769  1.39022e-06 
          50      6.44892     0.999841   0.00167613   2.8376e-06 
          50      6.55962     0.999841   0.00167534  4.28214e-06 
          50      6.67126      0.99984   0.00167454  5.72752e-06 
          50      6.78384     0.999839   0.00167373  7.17747e-06 
          50      6.89741     0.999838   0.00167291  8.63344e-06 
          50      7.01187     0.999837   0.00167208  1.00914e-05 
          50      7.12728     0.999836   0.00167124  1.15499e-05 
          50      7.24363     0.999835   0.00167038  1.30086e-05 
          50      7.36097     0.999834   0.00166952  1.44664e-05 
          50       7.4792     0.999834   0.00166864  1.59239e-05 
          50      7.59838     0.999833   0.00166774  1.73836e-05 
          50      7.71854     0.999832   0.00166684  1.88469e-05 
          50       7.8396     0.999831   0.00166592  2.03122e-05 
          50      7.96161      0.99983     0.001665  2.17775e-05 
          50      8.08455     0.999829   0.00166407    2.324e-05 
          50      8.20849     0.999829   0.00166311  2.46993e-05 
          50      8.33332     0.999828   0.00166215  2.61604e-05 
          50      8.45909     0.999827   0.00166118  2.76202e-05 
          50       8.5858     0.999826    0.0016602  2.90766e-05 
          50      8.71351     0.999825   0.00165921  3.05381e-05 
          50       8.8421     0.999825    0.0016582  3.19986e-05 
          50      8.97164     0.999824   0.00165718  3.34521e-05 
          50      9.10212     0.999823   0.00165615  3.49002e-05 
          50       9.2336     0.999822   0.00165511  3.63477e-05 
          50      9.36596     0.999822   0.00165406  3.77923e-05 
          50      9.49927     0.999821   0.00165299  3.92363e-05 
          50      9.63352      0.99982   0.00165191  4.06861e-05 
          50      9.76877      0.99982   0.00165082  4.21178e-05 
          50       9.9049     0.999819   0.00164973  4.35505e-05 
          50       10.042     0.999818   0.00164863  4.49829e-05 
          50      10.1801     0.999817   0.00164751  4.64119e-05 
          50       10.319     0.999817   0.00164638  4.78347e-05 
          50      10.4589     0.999816   0.00164524  4.92516e-05 
          50      10.5998     0.999815   0.00164408  5.06625e-05 
          50      10.7416     0.999815   0.00164292  5.20687e-05 
          50      10.8843     0.999814   0.00164176  5.34696e-05 
          50       11.028     0.999814   0.00164059  5.48675e-05 
          50      11.1726     0.999813    0.0016394  5.62644e-05 
          50      11.3182     0.999812   0.00163819  5.76542e-05 
          50      11.4647     0.999812   0.00163697  5.90319e-05 
          50      11.6122     0.999812   0.00163576  6.04005e-05 
          50      11.7605     0.999811   0.00163454   6.1764e-05 
          50      11.9099      0.99981   0.00163329  6.31251e-05 
          50      12.0602     0.999809   0.00163204  6.44825e-05 
          50      12.2114     0.999809   0.00163078  6.58343e-05 
          50      12.3636     0.999809   0.00162952  6.71767e-05 
          50      12.5167     0.999809   0.00162824  6.85007e-05 
          50      12.6707     0.999808   0.00162697  6.98134e-05 
          50      12.8257     0.999807   0.00162567  7.11421e-05 
          50      12.9817     0.999806   0.00162435  7.24594e-05 
          50      13.1386     0.999806   0.00162307  7.37538e-05 
          50      13.2964     0.999806   0.00162176  7.50166e-05 
          50      13.4551     0.999806   0.00162043  7.62958e-05 
          50      13.6149     0.999805   0.00161904   7.7609e-05 
          50      13.7755     0.999804   0.00161773  7.88597e-05 
          50      13.9371     0.999804   0.00161644  8.01107e-05 
          50      14.0996     0.999804    0.0016151  8.13546e-05 
          50      14.2631     0.999804    0.0016137  8.25911e-05 
          50      14.4275     0.999804    0.0016123  8.38253e-05 
          50      14.5928     0.999803   0.00161095  8.50588e-05 
          50      14.7592     0.999803   0.00160961  8.62822e-05 
          50      14.9264     0.999803    0.0016082  8.74806e-05 
          50      15.0946     0.999803   0.00160677  8.86679e-05 
          50      15.2637     0.999802   0.00160538  8.98531e-05 
          50      15.4338     0.999802   0.00160396  9.10158e-05 
          50      15.6048     0.999802   0.00160262   9.2174e-05 
          50      15.7767     0.999802   0.00160123  9.33201e-05 
          50      15.9496     0.999801   0.00159979  9.44562e-05 
          50      16.1235     0.999801   0.00159832  9.55858e-05 
          50      16.2982     0.999801   0.00159688  9.67084e-05 
          50      16.4739     0.999801   0.00159547  9.78216e-05 
          50      16.6506     0.999801   0.00159407  9.89207e-05 
          50      16.8282     0.999801   0.00159265  0.000100004 
          50      17.0068     0.999801   0.00159121  0.000101071 
          50      17.1862     0.999801   0.00158973  0.000102128 
          50      17.3667     0.999801   0.00158826  0.000103185 
          50      17.5481     0.999801   0.00158682  0.000104237 
          50      17.7304     0.999801   0.00158539  0.000105257 
          50      17.9136     0.999802   0.00158392  0.000106237 
          50      18.0979     0.999801   0.00158248   0.00010729 
          50       18.283       0.9998     0.001581  0.000108319 
          50      18.4691     0.999801   0.00157952  0.000109306 
          50      18.6561     0.999801   0.00157801  0.000110258 
          50      18.8441     0.999801   0.00157657  0.000111205 
          50       19.033     0.999801   0.00157515  0.000112139 
          50      19.2228     0.999801   0.00157371  0.000113063 
          50      19.4136     0.999802   0.00157226  0.000113988 
          50      19.6054     0.999802   0.00157077  0.000114908 
          50       19.798     0.999802   0.00156925   0.00011582 
          50      19.9917     0.999803   0.00156774  0.000116721 
          50      20.1862     0.999803   0.00156624   0.00011761 
          50      20.3818     0.999803   0.00156478  0.000118485 
          50      20.5782     0.999803   0.00156334  0.000119344 
          50      20.7756     0.999803   0.00156192  0.000120187 
          50       20.974     0.999803   0.00156048  0.000121014 
          50      21.1732     0.999803     0.001559  0.000121826 
          50      21.3734     0.999804   0.00155749  0.000122625 
          50      21.5745     0.999804   0.00155597  0.000123415 
          50      21.7767     0.999805    0.0015545  0.000124199 
          50      21.9797     0.999806   0.00155311  0.000124976 
          50      22.1837     0.999807   0.00155176  0.000125741 
          50      22.3886     0.999806   0.00155013  0.000126475 
          50      22.5945     0.999806   0.00154883  0.000127248 
          50      22.8013     0.999807   0.00154735     0.000128 
          50      23.0091     0.999808    0.0015458  0.000128728 
          50      23.2177     0.999809   0.00154431  0.000129444 
          50      23.4274     0.999809    0.0015429  0.000130152 
          50       23.638      0.99981   0.00154153   0.00013085 
          50      23.8495      0.99981   0.00154015  0.000131537 
          50       24.062      0.99981   0.00153874  0.000132211 
          50      24.2754      0.99981   0.00153728  0.000132869 
          50      24.4897     0.999811    0.0015358  0.000133514 
          50       24.705     0.999812   0.00153431  0.000134147 
          50      24.9213     0.999813   0.00153286   0.00013477 
          50      25.1385     0.999814   0.00153147  0.000135385 
          50      25.3566     0.999814   0.00153022  0.000135987 
          50      25.5756     0.999814   0.00152882  0.000136618 
          50      25.7957     0.999815   0.00152729  0.000137256 
          50      26.0166     0.999816   0.00152592  0.000137856 
          50      26.2385     0.999816   0.00152458  0.000138425 
          50      26.4613     0.999817   0.00152321   0.00013897 
          50      26.6851     0.999818   0.00152178  0.000139505 
          50      26.9098     0.999819   0.00152041  0.000140057 
          50      27.1354     0.999818   0.00151903  0.000140602 
          50      27.3621     0.999818   0.00151763   0.00014112 
          50      27.5896      0.99982   0.00151635  0.000141654 
          50      27.8181     0.999822   0.00151505  0.000142189 
          50      28.0475     0.999823   0.00151371  0.000142716 
          50      28.2779     0.999824   0.00151234  0.000143231 
          50      28.5092     0.999824   0.00151097  0.000143729 
          50      28.7414     0.999824   0.00150962   0.00014421 
          50      28.9746     0.999825   0.00150829  0.000144673 
          50      29.2088     0.999825   0.00150698  0.000145119 
          50      29.4439     0.999826   0.00150568  0.000145551 
          50      29.6799     0.999827   0.00150447     0.000146 
          50      29.9168     0.999829   0.00150324  0.000146446 
          50      30.1548      0.99983   0.00150195  0.000146894 
          50      30.3936     0.999831   0.00150063  0.000147341 
          50      30.6334     0.999831   0.00149929  0.000147781 
          50      30.8742     0.999831     0.001498  0.000148208 
          50      31.1158     0.999833   0.00149678  0.000148618 
          50      31.3584     0.999835    0.0014956  0.000149019 
          50       31.602     0.999833   0.00149416  0.000149439 
          50      31.8465     0.999835   0.00149309  0.000149834 
          50      32.0919     0.999837   0.00149191  0.000150223 
          50      32.3383     0.999838   0.00149068  0.000150607 
          50      32.5856     0.999839   0.00148944  0.000150986 
          50       32.834     0.999839   0.00148821  0.000151361 
          50      33.0831      0.99984   0.00148701  0.000151732 
          50      33.3333     0.999841   0.00148583  0.000152099 
          50      33.5843     0.999842   0.00148467  0.000152461 
          50      33.8364     0.999843   0.00148353  0.000152818 
          50      34.0894     0.999844   0.00148238  0.000153171 
          50      34.3433     0.999845   0.00148124  0.000153518 
          50      34.5981     0.999846   0.00148009   0.00015386 
          50       34.854     0.999847   0.00147894  0.000154199 
          50      35.1107     0.999848   0.00147779  0.000154536 
          50      35.3684      0.99985   0.00147665   0.00015487 
          50      35.6271     0.999851   0.00147552  0.000155205 
          50      35.8867     0.999852   0.00147442   0.00015554 
          50      36.1472     0.999852   0.00147333  0.000155857 
          50      36.4086     0.999853   0.00147226  0.000156165 
          50      36.6711     0.999854    0.0014712  0.000156472 
          50      36.9344     0.999855   0.00147014  0.000156777 
          50      37.1987     0.999856   0.00146907  0.000157084 
          50      37.4639     0.999857   0.00146799  0.000157395 
          50      37.7301     0.999857   0.00146691  0.000157707 
          50      37.9972     0.999858   0.00146585  0.000158012 
          50      38.2652     0.999861   0.00146482  0.000158286 
          50      38.5342     0.999864   0.00146375  0.000158575 
          50      38.8042     0.999862   0.00146274  0.000158931 
          50      39.0751     0.999861   0.00146208  0.000159284 
          50      39.3469     0.999866    0.0014607  0.000159531 
          50      39.6197     0.999867   0.00145963  0.000159734 
          50      39.8934     0.999868   0.00145862  0.000159855 
          50       40.168     0.999867   0.00145782  0.000160277 
          50      40.4436     0.999868   0.00145697   0.00016069 
          50      40.7202     0.999868   0.00145603  0.000161036 
          50      40.9977      0.99987   0.00145504  0.000161336 
          50      41.2761     0.999871   0.00145401  0.000161609 
          50      41.5554     0.999873   0.00145299  0.000161868 
          50      41.8358     0.999875   0.00145198  0.000162123 
          50       42.117     0.999876     0.001451  0.000162379 
          50      42.3992     0.999877   0.00145005  0.000162642 
          50      42.6823     0.999878   0.00144914  0.000162913 
          50      42.9664     0.999879   0.00144826  0.000163194 
          50      43.2514      0.99988   0.00144741  0.000163483 
          50      43.5373      0.99988   0.00144657  0.000163778 
          50      43.8243     0.999881   0.00144573  0.000164079 
          50      44.1121     0.999882   0.00144489  0.000164382 
          50      44.4009     0.999883   0.00144404  0.000164687 
          50      44.6906     0.999884   0.00144318   0.00016499 
          50      44.9813     0.999885    0.0014423  0.000165291 
          50      45.2729     0.999886   0.00144142  0.000165587 
          50      45.5654     0.999888   0.00144053   0.00016588 
          50      45.8589     0.999889   0.00143965  0.000166168 
          50      46.1534     0.999891   0.00143877  0.000166452 
          50      46.4488     0.999892   0.00143792  0.000166734 
          50      46.7451     0.999892   0.00143709  0.000167013 
          50      47.0423     0.999893   0.00143628  0.000167293 
          50      47.3406     0.999893   0.00143548  0.000167576 
          50      47.6397     0.999894    0.0014347  0.000167862 
          50      47.9398     0.999894   0.00143392  0.000168155 
          50      48.2409     0.999895   0.00143314  0.000168456 
          50      48.5428     0.999897   0.00143234  0.000168765 
          50      48.8457     0.999899   0.00143155  0.000169083 
          50      49.1496     0.999901   0.00143081  0.000169411 
          50      49.4545     0.999903   0.00143021  0.000169747 
          50      49.7602     0.999903    0.0014294  0.000170081 
          50      50.0668     0.999902   0.00142854  0.000170395 
          50      50.3744     0.999903   0.00142776  0.000170694 
          50      50.6831     0.999904   0.00142701  0.000170989 
          50      50.9926     0.999905   0.00142628  0.000171287 
          50       51.303     0.999906   0.00142555  0.000171598 
          50      51.6144     0.999907   0.00142483  0.000171929 
          50      51.9268     0.999908   0.00142412  0.000172284 
          50        52.24     0.999909   0.00142342  0.000172661 
          50      52.5542      0.99991   0.00142273  0.000173053 
          50      52.8694      0.99991   0.00142204  0.000173446 
          50      53.1856     0.999911   0.00142134  0.000173813 
          50      53.5026     0.999912   0.00142065  0.000174116 
          50      53.8205     0.999914   0.00141996  0.000174301 
          50      54.1396     0.999915   0.00141927  0.000174771 
          50      54.4594     0.999916   0.00141859  0.000175251 
          50      54.7802     0.999917   0.00141791  0.000175631 
          50      55.1019     0.999917   0.00141721  0.000175965 
          50      55.4247     0.999918    0.0014165  0.000176288 
          50      55.7483     0.999918   0.00141578  0.000176622 
          50      56.0729     0.999919   0.00141508  0.000176977 
          50      56.3984     0.999919   0.00141439  0.000177356 
          50       56.725      0.99992   0.00141372  0.000177758 
          50      57.0523     0.999921   0.00141306  0.000178177 
          50      57.3807     0.999922   0.00141242  0.000178607 
          50      57.7099     0.999923   0.00141177   0.00017904 
          50      58.0403     0.999925   0.00141112  0.000179473 
          50      58.3714     0.999926   0.00141046    0.0001799 
          50      58.7035     0.999927   0.00140978   0.00018032 
          50      59.0367     0.999927    0.0014091  0.000180732 
          50      59.3707     0.999928   0.00140842  0.000181139 
          50      59.7056     0.999928   0.00140776  0.000181543 
          50      60.0414     0.999928   0.00140714  0.000181952 
          50      60.3784     0.999929   0.00140657   0.00018237 
          50      60.7161      0.99993   0.00140604  0.000182805 
          50      61.0548     0.999931   0.00140549  0.000183265 
          50      61.3944     0.999932   0.00140479  0.000183755 
          50      61.7351     0.999933   0.00140421  0.000184139 
          50      62.0767     0.999934   0.00140375  0.000184575 
          50      62.4191     0.999935   0.00140314  0.000185116 
          50      62.7625     0.999935   0.00140243  0.000185687 
          50       63.107     0.999935   0.00140168   0.00018624 
          50      63.4523     0.999935   0.00140093  0.000186749 
          50      63.7985     0.999935   0.00140022   0.00018721 
          50      64.1458     0.999936   0.00139959   0.00018763 
          50      64.4939     0.999937   0.00139902   0.00018803 
          50       64.843     0.999938    0.0013985  0.000188434 
          50      65.1929      0.99994   0.00139802  0.000188867 
          50       65.544     0.999941   0.00139753  0.000189348 
          50      65.8959     0.999943     0.001397   0.00018989 
          50      66.2487     0.999944   0.00139641  0.000190491 
          50      66.6025     0.999945   0.00139575  0.000191141 
          50      66.9573     0.999945   0.00139503  0.000191813 
          50       67.313     0.999945   0.00139427  0.000192473 
          50      67.6695     0.999945   0.00139353  0.000193083 
          50      68.0271     0.999944   0.00139287   0.00019361 
          50      68.3857     0.999944   0.00139232  0.000194037 
          50      68.7451     0.999944   0.00139191  0.000194382 
          50      69.1055     0.999945   0.00139158  0.000194722 
          50      69.4669     0.999945   0.00139112  0.000195214 
          50      69.8291     0.999945   0.00139014  0.000196134 
          50      70.1923     0.999944   0.00138861  0.000197431 
          50      70.5564     0.999947   0.00138872  0.000197477 
          50      70.9217     0.999949   0.00138852  0.000197735 
          50      71.2877     0.999951   0.00138809  0.000198162 
          50      71.6546     0.999951   0.00138751  0.000198717 
          50      72.0225     0.999952   0.00138683  0.000199364 
          50      72.3915     0.999951    0.0013861  0.000200072 
          50      72.7613      0.99995   0.00138534  0.000200812 
          50       73.132     0.999948   0.00138457  0.000201565 
          50      73.5036     0.999947   0.00138381  0.000202314 
          50      73.8764     0.999948   0.00138309  0.000203051 
          50      74.2499     0.999954   0.00138244  0.000203772 
          50      74.6244     0.999969   0.00138195   0.00020448 
          50           75            1   0.00138179  0.000205184 
