Variables = x, y, u, v, p

Zone, I=1000, F=POINT
         200            0           -0           -0 -8.14886e-05 
         200      0.00015  6.79583e-05  4.79487e-12 -8.14885e-05 
         200     0.000601  0.000272286  7.69742e-11 -8.14884e-05 
         200     0.001352  0.000612531  3.89539e-10  -8.1488e-05 
         200     0.002404   0.00108915  1.23159e-09 -8.14876e-05 
         200     0.003757   0.00170213  3.00803e-09  -8.1487e-05 
         200      0.00541   0.00245103   6.2373e-09 -8.14863e-05 
         200     0.007364   0.00333631  1.15566e-08 -8.14855e-05 
         200     0.009619   0.00435795  1.97182e-08 -8.14845e-05 
         200     0.012174   0.00551552  3.15846e-08 -8.14834e-05 
         200      0.01503   0.00680946  4.81427e-08 -8.14822e-05 
         200     0.018186   0.00823931  7.04839e-08 -8.14809e-05 
         200     0.021643   0.00980555  9.98285e-08 -8.14794e-05 
         200       0.0254    0.0115077  1.37496e-07 -8.14778e-05 
         200     0.029458    0.0133462  1.84941e-07 -8.14761e-05 
         200     0.033817    0.0153211  2.43726e-07 -8.14742e-05 
         200     0.038476     0.017432  3.15513e-07 -8.14722e-05 
         200     0.043436    0.0196792  4.02107e-07 -8.14701e-05 
         200     0.048697    0.0220628   5.0542e-07 -8.14678e-05 
         200     0.054258    0.0245823  6.27452e-07 -8.14655e-05 
         200      0.06012    0.0272382  7.70366e-07  -8.1463e-05 
         200     0.066282      0.03003  9.36388e-07 -8.14604e-05 
         200     0.072745    0.0329582  1.12792e-06 -8.14576e-05 
         200     0.079508    0.0360222  1.34741e-06 -8.14547e-05 
         200     0.086572    0.0392227  1.59749e-06 -8.14517e-05 
         200     0.093937    0.0425595  1.88088e-06 -8.14486e-05 
         200     0.101602    0.0460322  2.20038e-06 -8.14453e-05 
         200     0.109568    0.0496412  2.55898e-06 -8.14419e-05 
         200     0.117835    0.0533865  2.95973e-06 -8.14384e-05 
         200     0.126402    0.0572677  3.40578e-06 -8.14347e-05 
         200      0.13527    0.0612851  3.90046e-06 -8.14309e-05 
         200     0.144438    0.0654384  4.44712e-06  -8.1427e-05 
         200     0.153907    0.0697278  5.04934e-06  -8.1423e-05 
         200     0.163676     0.074153   5.7107e-06 -8.14188e-05 
         200     0.173746    0.0787142    6.435e-06 -8.14145e-05 
         200     0.184117    0.0834116  7.22612e-06 -8.14101e-05 
         200     0.194788    0.0882445  8.08796e-06 -8.14055e-05 
         200      0.20576    0.0932133  9.02468e-06 -8.14008e-05 
         200     0.217033    0.0983179  1.00405e-05  -8.1396e-05 
         200     0.228606     0.103558  1.11396e-05  -8.1391e-05 
         200      0.24048     0.108933  1.23265e-05  -8.1386e-05 
         200     0.252654     0.114444  1.36056e-05 -8.13807e-05 
         200     0.265129      0.12009  1.49817e-05 -8.13754e-05 
         200     0.277904     0.125871  1.64594e-05 -8.13699e-05 
         200     0.290981     0.131787  1.80438e-05 -8.13643e-05 
         200     0.304357     0.137837  1.97394e-05 -8.13586e-05 
         200     0.318035     0.144022  2.15517e-05 -8.13527e-05 
         200     0.332013     0.150341  2.34855e-05 -8.13467e-05 
         200     0.346291     0.156793  2.55461e-05 -8.13406e-05 
         200      0.36087     0.163379   2.7739e-05 -8.13343e-05 
         200      0.37575     0.170099  3.00694e-05 -8.13279e-05 
         200      0.39093     0.176951  3.25429e-05 -8.13213e-05 
         200     0.406411     0.183935   3.5165e-05 -8.13146e-05 
         200     0.422193     0.191051  3.79416e-05 -8.13078e-05 
         200     0.438275     0.198298   4.0878e-05 -8.13009e-05 
         200     0.454657     0.205676  4.39801e-05 -8.12937e-05 
         200     0.471341     0.213184  4.72541e-05 -8.12865e-05 
         200     0.488325     0.220821  5.07055e-05 -8.12791e-05 
         200     0.505609     0.228587  5.43402e-05 -8.12716e-05 
         200     0.523194      0.23648  5.81645e-05 -8.12639e-05 
         200      0.54108       0.2445  6.21842e-05  -8.1256e-05 
         200     0.559266     0.252645  6.64052e-05  -8.1248e-05 
         200     0.577753     0.260916  7.08337e-05 -8.12399e-05 
         200     0.596541      0.26931  7.54758e-05 -8.12316e-05 
         200     0.615629     0.277826  8.03374e-05 -8.12231e-05 
         200     0.635018     0.286463  8.54245e-05 -8.12145e-05 
         200     0.654707     0.295219  9.07427e-05 -8.12057e-05 
         200     0.674697     0.304092  9.62982e-05 -8.11967e-05 
         200     0.694987     0.313082  0.000102097 -8.11876e-05 
         200     0.715579     0.322186  0.000108144 -8.11782e-05 
         200      0.73647     0.331402  0.000114446 -8.11687e-05 
         200     0.757663     0.340729  0.000121007  -8.1159e-05 
         200     0.779155     0.350162  0.000127834 -8.11492e-05 
         200     0.800949     0.359702  0.000134932 -8.11391e-05 
         200     0.823043     0.369344  0.000142304 -8.11288e-05 
         200     0.845438     0.379087  0.000149957 -8.11183e-05 
         200     0.868133     0.388926  0.000157894 -8.11076e-05 
         200     0.891129      0.39886  0.000166121 -8.10967e-05 
         200     0.914426     0.408885  0.000174641 -8.10855e-05 
         200     0.938023     0.418996  0.000183457 -8.10741e-05 
         200      0.96192     0.429192  0.000192573 -8.10625e-05 
         200     0.986119     0.439468  0.000201993 -8.10506e-05 
         200      1.01062     0.449819  0.000211718 -8.10384e-05 
         200      1.03542     0.460242   0.00022175  -8.1026e-05 
         200      1.06052     0.470731  0.000232093 -8.10133e-05 
         200      1.08592     0.481284  0.000242746 -8.10003e-05 
         200      1.11162     0.491893   0.00025371  -8.0987e-05 
         200      1.13762     0.502555  0.000264987 -8.09734e-05 
         200      1.16392     0.513264  0.000276574 -8.09595e-05 
         200      1.19053     0.524014  0.000288471 -8.09453e-05 
         200      1.21743       0.5348  0.000300677 -8.09307e-05 
         200      1.24463     0.545614  0.000313188 -8.09157e-05 
         200      1.27214     0.556452  0.000326002 -8.09004e-05 
         200      1.29994     0.567306  0.000339114 -8.08847e-05 
         200      1.32805      0.57817  0.000352522 -8.08686e-05 
         200      1.35646     0.589036  0.000366218 -8.08521e-05 
         200      1.38517     0.599898  0.000380197 -8.08352e-05 
         200      1.41417     0.610748  0.000394451 -8.08179e-05 
         200      1.44348     0.621578  0.000408973 -8.08001e-05 
         200      1.47309     0.632381  0.000423753 -8.07818e-05 
         200        1.503     0.643149  0.000438781 -8.07631e-05 
         200      1.53321     0.653874  0.000454048 -8.07437e-05 
         200      1.56372     0.664547  0.000469543 -8.07239e-05 
         200      1.59453     0.675159  0.000485252 -8.07036e-05 
         200      1.62565     0.685703  0.000501161 -8.06828e-05 
         200      1.65706      0.69617  0.000517257 -8.06615e-05 
         200      1.68877     0.706552  0.000533524 -8.06396e-05 
         200      1.72079     0.716838  0.000549947 -8.06171e-05 
         200       1.7531     0.727022  0.000566507  -8.0594e-05 
         200      1.78572     0.737094  0.000583188 -8.05703e-05 
         200      1.81863     0.747045  0.000599971  -8.0546e-05 
         200      1.85185     0.756867  0.000616836  -8.0521e-05 
         200      1.88536     0.766551  0.000633764 -8.04953e-05 
         200      1.91918     0.776089  0.000650732  -8.0469e-05 
         200       1.9533     0.785473  0.000667721  -8.0442e-05 
         200      1.98772     0.794694  0.000684709 -8.04143e-05 
         200      2.02244     0.803744  0.000701672 -8.03859e-05 
         200      2.05746     0.812617  0.000718589 -8.03568e-05 
         200      2.09278     0.821305  0.000735436  -8.0327e-05 
         200       2.1284       0.8298  0.000752189 -8.02964e-05 
         200      2.16432     0.838097  0.000768826 -8.02651e-05 
         200      2.20054     0.846189  0.000785322 -8.02331e-05 
         200      2.23707      0.85407  0.000801655 -8.02004e-05 
         200      2.27389     0.861735  0.000817802 -8.01669e-05 
         200      2.31101     0.869179  0.000833739 -8.01327e-05 
         200      2.34844     0.876398  0.000849444 -8.00978e-05 
         200      2.38617     0.883388  0.000864895 -8.00621e-05 
         200      2.42419     0.890146  0.000880072 -8.00256e-05 
         200      2.46252     0.896669  0.000894952 -7.99884e-05 
         200      2.50114     0.902955  0.000909517 -7.99505e-05 
         200      2.54007     0.909003  0.000923749 -7.99118e-05 
         200       2.5793     0.914812  0.000937629 -7.98724e-05 
         200      2.61883     0.920381  0.000951142 -7.98322e-05 
         200      2.65866     0.925711  0.000964272 -7.97913e-05 
         200      2.69879     0.930803  0.000977006 -7.97497e-05 
         200      2.73922     0.935659  0.000989331 -7.97073e-05 
         200      2.77995      0.94028   0.00100124 -7.96643e-05 
         200      2.82098      0.94467   0.00101271 -7.96205e-05 
         200      2.86232     0.948832   0.00102376  -7.9576e-05 
         200      2.90395      0.95277   0.00103436 -7.95308e-05 
         200      2.94588     0.956488   0.00104451 -7.94849e-05 
         200      2.98812     0.959991   0.00105422 -7.94384e-05 
         200      3.03065     0.963286   0.00106348 -7.93912e-05 
         200      3.07349     0.966376   0.00107229 -7.93434e-05 
         200      3.11662      0.96927   0.00108065  -7.9295e-05 
         200      3.16006     0.971973   0.00108857  -7.9246e-05 
         200       3.2038     0.974492   0.00109606 -7.91964e-05 
         200      3.24783     0.976834   0.00110312 -7.91462e-05 
         200      3.29217     0.979006   0.00110976 -7.90955e-05 
         200      3.33681     0.981017   0.00111598 -7.90443e-05 
         200      3.38175     0.982873   0.00112181 -7.89926e-05 
         200      3.42699     0.984582   0.00112725 -7.89404e-05 
         200      3.47253     0.986152   0.00113231 -7.88877e-05 
         200      3.51838     0.987591   0.00113701 -7.88345e-05 
         200      3.56452     0.988905   0.00114136 -7.87807e-05 
         200      3.61096     0.990103   0.00114538 -7.87264e-05 
         200       3.6577     0.991191   0.00114909 -7.86715e-05 
         200      3.70475     0.992178   0.00115249 -7.86159e-05 
         200      3.75209     0.993071   0.00115561 -7.85595e-05 
         200      3.79974     0.993875   0.00115846 -7.85028e-05 
         200      3.84768     0.994598   0.00116105  -7.8445e-05 
         200      3.89593     0.995246    0.0011634 -7.83867e-05 
         200      3.94448     0.995826   0.00116553 -7.83281e-05 
         200      3.99332     0.996342   0.00116746 -7.82695e-05 
         200      4.04247       0.9968   0.00116919 -7.82109e-05 
         200      4.09192     0.997206   0.00117075 -7.81523e-05 
         200      4.14167     0.997565   0.00117214 -7.80936e-05 
         200      4.19172     0.997881   0.00117338 -7.80346e-05 
         200      4.24207     0.998158   0.00117448 -7.79753e-05 
         200      4.29272       0.9984   0.00117546 -7.79156e-05 
         200      4.34367     0.998611   0.00117632 -7.78554e-05 
         200      4.39493     0.998795   0.00117708 -7.77947e-05 
         200      4.44648     0.998954   0.00117774 -7.77335e-05 
         200      4.49833     0.999091   0.00117833 -7.76718e-05 
         200      4.55049     0.999209   0.00117885 -7.76096e-05 
         200      4.60294      0.99931   0.00117931  -7.7547e-05 
         200       4.6557     0.999397   0.00117971 -7.74839e-05 
         200      4.70875     0.999471   0.00118005 -7.74202e-05 
         200      4.76211     0.999533   0.00118034 -7.73557e-05 
         200      4.81577     0.999586   0.00118059 -7.72902e-05 
         200      4.86972      0.99963   0.00118079 -7.72231e-05 
         200      4.92398     0.999668   0.00118097 -7.71578e-05 
         200      4.97854     0.999699   0.00118113 -7.70933e-05 
         200       5.0334     0.999725   0.00118127 -7.70287e-05 
         200      5.08856     0.999746   0.00118139 -7.69637e-05 
         200      5.14402     0.999764   0.00118149 -7.68978e-05 
         200      5.19978     0.999779   0.00118159 -7.68302e-05 
         200      5.25584     0.999791   0.00118167 -7.67603e-05 
         200      5.31221     0.999801   0.00118174 -7.66899e-05 
         200      5.36887     0.999809   0.00118178 -7.66214e-05 
         200      5.42584     0.999815   0.00118183 -7.65494e-05 
         200       5.4831     0.999821   0.00118187 -7.64774e-05 
         200      5.54066     0.999825    0.0011819 -7.64087e-05 
         200      5.59853     0.999828   0.00118193 -7.63473e-05 
         200       5.6567     0.999831   0.00118196 -7.62703e-05 
         200      5.71516     0.999833   0.00118199 -7.61927e-05 
         200      5.77393     0.999835   0.00118202 -7.61244e-05 
         200        5.833     0.999837   0.00118206 -7.60604e-05 
         200      5.89237     0.999838   0.00118209 -7.59967e-05 
         200      5.95204     0.999839   0.00118212 -7.59309e-05 
         200      6.01201     0.999839   0.00118215 -7.58619e-05 
         200      6.07228      0.99984   0.00118217 -7.57894e-05 
         200      6.13285      0.99984   0.00118219 -7.57139e-05 
         200      6.19372     0.999841    0.0011822 -7.56363e-05 
         200      6.25489     0.999841   0.00118221  -7.5558e-05 
         200      6.31636     0.999842   0.00118222 -7.54798e-05 
         200      6.37814     0.999842   0.00118223 -7.54025e-05 
         200      6.44021     0.999842   0.00118226 -7.53264e-05 
         200      6.50258     0.999842   0.00118229 -7.52509e-05 
         200      6.56526     0.999842   0.00118233 -7.51752e-05 
         200      6.62824     0.999843   0.00118236 -7.50981e-05 
         200      6.69151     0.999843   0.00118239 -7.50186e-05 
         200      6.75509     0.999843   0.00118239 -7.49366e-05 
         200      6.81897     0.999843   0.00118239 -7.48539e-05 
         200      6.88314     0.999843    0.0011824 -7.47758e-05 
         200      6.94762     0.999843   0.00118252 -7.47116e-05 
         200       7.0124     0.999844   0.00118246 -7.46327e-05 
         200      7.07748     0.999844   0.00118245 -7.45577e-05 
         200      7.14286     0.999844   0.00118247  -7.4484e-05 
         200      7.20854     0.999844    0.0011825   -7.441e-05 
         200      7.27453     0.999844   0.00118253 -7.43347e-05 
         200      7.34081     0.999844   0.00118256 -7.42576e-05 
         200      7.40739     0.999845   0.00118259 -7.41784e-05 
         200      7.47428     0.999845   0.00118261 -7.40974e-05 
         200      7.54146     0.999845   0.00118262 -7.40148e-05 
         200      7.60895     0.999845   0.00118264  -7.3931e-05 
         200      7.67673     0.999845   0.00118265 -7.38465e-05 
         200      7.74482     0.999845   0.00118266 -7.37617e-05 
         200       7.8132     0.999846   0.00118268 -7.36769e-05 
         200      7.88189     0.999846   0.00118269 -7.35924e-05 
         200      7.95088     0.999846   0.00118272 -7.35083e-05 
         200      8.02017     0.999846   0.00118274 -7.34246e-05 
         200      8.08976     0.999846   0.00118277 -7.33413e-05 
         200      8.15964     0.999846    0.0011828 -7.32583e-05 
         200      8.22983     0.999847   0.00118283 -7.31751e-05 
         200      8.30033     0.999847   0.00118286 -7.30917e-05 
         200      8.37112     0.999847   0.00118288 -7.30078e-05 
         200      8.44221     0.999847   0.00118291  -7.2923e-05 
         200       8.5136     0.999847   0.00118293 -7.28374e-05 
         200      8.58529     0.999847   0.00118295 -7.27506e-05 
         200      8.65729     0.999848   0.00118297 -7.26629e-05 
         200      8.72958     0.999848   0.00118298 -7.25744e-05 
         200      8.80218     0.999848     0.001183 -7.24854e-05 
         200      8.87507     0.999848   0.00118301 -7.23964e-05 
         200      8.94827     0.999848   0.00118301 -7.23077e-05 
         200      9.02177     0.999848   0.00118297   -7.222e-05 
         200      9.09556     0.999849   0.00118303 -7.21279e-05 
         200      9.16966     0.999849   0.00118312 -7.20357e-05 
         200      9.24406     0.999849   0.00118318 -7.19473e-05 
         200      9.31876     0.999849   0.00118322 -7.18636e-05 
         200      9.39376     0.999849   0.00118322 -7.17838e-05 
         200      9.46906     0.999849   0.00118319 -7.17048e-05 
         200      9.54466      0.99985    0.0011832 -7.16072e-05 
         200      9.62056      0.99985   0.00118324 -7.15019e-05 
         200      9.69676      0.99985   0.00118327 -7.13977e-05 
         200      9.77327      0.99985    0.0011833 -7.12934e-05 
         200      9.85007      0.99985   0.00118335 -7.11883e-05 
         200      9.92717     0.999851   0.00118336 -7.10984e-05 
         200      10.0046     0.999851   0.00118333 -7.10205e-05 
         200      10.0823     0.999851   0.00118333 -7.09346e-05 
         200      10.1603     0.999851   0.00118335 -7.08431e-05 
         200      10.2386     0.999851   0.00118338  -7.0748e-05 
         200      10.3172     0.999851   0.00118342 -7.06508e-05 
         200      10.3961     0.999852   0.00118346 -7.05524e-05 
         200      10.4753     0.999852    0.0011835 -7.04535e-05 
         200      10.5548     0.999852   0.00118353 -7.03545e-05 
         200      10.6346     0.999852   0.00118356 -7.02555e-05 
         200      10.7147     0.999852   0.00118359 -7.01565e-05 
         200      10.7952     0.999853   0.00118361 -7.00576e-05 
         200      10.8759     0.999853   0.00118362 -6.99586e-05 
         200      10.9569     0.999853   0.00118364 -6.98594e-05 
         200      11.0382     0.999853   0.00118365 -6.97599e-05 
         200      11.1198     0.999853   0.00118366 -6.96599e-05 
         200      11.2017     0.999854   0.00118368 -6.95594e-05 
         200      11.2839     0.999854   0.00118369 -6.94584e-05 
         200      11.3664     0.999854   0.00118371 -6.93569e-05 
         200      11.4493     0.999854   0.00118374  -6.9255e-05 
         200      11.5324     0.999854   0.00118376 -6.91528e-05 
         200      11.6158     0.999855   0.00118379 -6.90502e-05 
         200      11.6995     0.999855   0.00118382 -6.89475e-05 
         200      11.7835     0.999855   0.00118386 -6.88447e-05 
         200      11.8679     0.999855   0.00118389 -6.87418e-05 
         200      11.9525     0.999855   0.00118392 -6.86387e-05 
         200      12.0374     0.999856   0.00118395 -6.85354e-05 
         200      12.1226     0.999856   0.00118397 -6.84318e-05 
         200      12.2081     0.999856   0.00118399 -6.83276e-05 
         200       12.294     0.999856   0.00118401 -6.82226e-05 
         200      12.3801     0.999856   0.00118402 -6.81166e-05 
         200      12.4665     0.999856   0.00118404 -6.80094e-05 
         200      12.5532     0.999857   0.00118405  -6.7901e-05 
         200      12.6402     0.999857   0.00118407 -6.77915e-05 
         200      12.7276     0.999857    0.0011841 -6.76813e-05 
         200      12.8152     0.999857   0.00118413 -6.75714e-05 
         200      12.9031     0.999858   0.00118417 -6.74637e-05 
         200      12.9913     0.999858   0.00118421   -6.736e-05 
         200      13.0799     0.999858   0.00118425 -6.72579e-05 
         200      13.1687     0.999858   0.00118428 -6.71562e-05 
         200      13.2578     0.999858   0.00118431 -6.70543e-05 
         200      13.3473     0.999859   0.00118434 -6.69514e-05 
         200       13.437     0.999859   0.00118436 -6.68471e-05 
         200       13.527     0.999859   0.00118437  -6.6741e-05 
         200      13.6173     0.999859   0.00118439 -6.66332e-05 
         200       13.708      0.99986    0.0011844 -6.65235e-05 
         200      13.7989      0.99986   0.00118442 -6.64121e-05 
         200      13.8901      0.99986   0.00118445 -6.62993e-05 
         200      13.9817      0.99986   0.00118448  -6.6185e-05 
         200      14.0735      0.99986   0.00118451 -6.60695e-05 
         200      14.1656     0.999861   0.00118454 -6.59523e-05 
         200      14.2581     0.999861   0.00118455  -6.5833e-05 
         200      14.3508     0.999861    0.0011845 -6.57103e-05 
         200      14.4438     0.999861   0.00118457 -6.55956e-05 
         200      14.5372     0.999861   0.00118465 -6.54829e-05 
         200      14.6308     0.999862   0.00118469 -6.53684e-05 
         200      14.7248     0.999862   0.00118471 -6.52528e-05 
         200       14.819     0.999862   0.00118472 -6.51369e-05 
         200      14.9135     0.999862   0.00118471 -6.50208e-05 
         200      15.0084     0.999862    0.0011847 -6.49045e-05 
         200      15.1035     0.999863    0.0011847  -6.4788e-05 
         200       15.199     0.999863    0.0011847 -6.46708e-05 
         200      15.2947     0.999863   0.00118471 -6.45528e-05 
         200      15.3907     0.999863   0.00118474 -6.44335e-05 
         200      15.4871     0.999864   0.00118477 -6.43128e-05 
         200      15.5837     0.999864   0.00118482 -6.41906e-05 
         200      15.6807     0.999864   0.00118487 -6.40673e-05 
         200      15.7779     0.999865   0.00118492 -6.39431e-05 
         200      15.8755     0.999865   0.00118498 -6.38187e-05 
         200      15.9733     0.999865   0.00118503 -6.36948e-05 
         200      16.0714     0.999865   0.00118507  -6.3572e-05 
         200      16.1699     0.999865   0.00118509 -6.34506e-05 
         200      16.2686     0.999865   0.00118511 -6.33303e-05 
         200      16.3677     0.999866   0.00118511 -6.32098e-05 
         200       16.467     0.999866   0.00118511 -6.30861e-05 
         200      16.5667     0.999866   0.00118515  -6.2954e-05 
         200      16.6666     0.999867   0.00118525 -6.28053e-05 
         200      16.7669     0.999867   0.00118523 -6.26946e-05 
         200      16.8674     0.999867   0.00118519 -6.25859e-05 
         200      16.9683     0.999867   0.00118518 -6.24662e-05 
         200      17.0694     0.999867   0.00118519  -6.2341e-05 
         200      17.1709     0.999868   0.00118523 -6.22143e-05 
         200      17.2726     0.999868   0.00118528 -6.20886e-05 
         200      17.3747     0.999868   0.00118533 -6.19649e-05 
         200      17.4771     0.999869   0.00118538 -6.18435e-05 
         200      17.5797     0.999869   0.00118542  -6.1724e-05 
         200      17.6827     0.999869   0.00118545 -6.16053e-05 
         200      17.7859     0.999869   0.00118548 -6.14865e-05 
         200      17.8895      0.99987   0.00118549 -6.13663e-05 
         200      17.9933      0.99987   0.00118551 -6.12435e-05 
         200      18.0975      0.99987   0.00118551 -6.11174e-05 
         200      18.2019      0.99987   0.00118552 -6.09874e-05 
         200      18.3067      0.99987   0.00118553 -6.08532e-05 
         200      18.4118     0.999871   0.00118555 -6.07152e-05 
         200      18.5171     0.999871   0.00118558 -6.05739e-05 
         200      18.6228     0.999871   0.00118561 -6.04304e-05 
         200      18.7288     0.999871   0.00118566 -6.02862e-05 
         200       18.835     0.999872   0.00118571 -6.01428e-05 
         200      18.9416     0.999872   0.00118577 -6.00019e-05 
         200      19.0484     0.999872   0.00118583 -5.98653e-05 
         200      19.1556     0.999872   0.00118589 -5.97343e-05 
         200      19.2631     0.999873   0.00118594   -5.961e-05 
         200      19.3708     0.999873   0.00118597 -5.94924e-05 
         200      19.4789     0.999873   0.00118599 -5.93808e-05 
         200      19.5873     0.999874   0.00118598 -5.92729e-05 
         200      19.6959     0.999874   0.00118594 -5.91649e-05 
         200      19.8049     0.999874   0.00118589 -5.90504e-05 
         200      19.9142     0.999874   0.00118582 -5.89209e-05 
         200      20.0237     0.999875   0.00118578 -5.87877e-05 
         200      20.1336     0.999875    0.0011858 -5.86823e-05 
         200      20.2438     0.999875   0.00118584 -5.85589e-05 
         200      20.3542     0.999875   0.00118591 -5.84199e-05 
         200       20.465     0.999876   0.00118599 -5.82679e-05 
         200      20.5761     0.999876   0.00118609 -5.81057e-05 
         200      20.6875     0.999876   0.00118618 -5.79371e-05 
         200      20.7991     0.999876   0.00118626 -5.77666e-05 
         200      20.9111     0.999876   0.00118631 -5.76003e-05 
         200      21.0234     0.999877   0.00118632 -5.74458e-05 
         200       21.136     0.999877    0.0011863 -5.73131e-05 
         200      21.2488     0.999878   0.00118625 -5.72146e-05 
         200       21.362     0.999878    0.0011863 -5.70803e-05 
         200      21.4755     0.999878   0.00118634 -5.69067e-05 
         200      21.5893     0.999878   0.00118633 -5.67597e-05 
         200      21.7033     0.999878    0.0011863 -5.66265e-05 
         200      21.8177     0.999879    0.0011863 -5.64984e-05 
         200      21.9324     0.999879   0.00118632 -5.63695e-05 
         200      22.0474     0.999879   0.00118636 -5.62367e-05 
         200      22.1627      0.99988   0.00118642 -5.60986e-05 
         200      22.2782      0.99988   0.00118648 -5.59552e-05 
         200      22.3941      0.99988   0.00118653 -5.58074e-05 
         200      22.5103      0.99988   0.00118658 -5.56564e-05 
         200      22.6268      0.99988   0.00118661 -5.55038e-05 
         200      22.7436     0.999881   0.00118662 -5.53511e-05 
         200      22.8607     0.999881   0.00118663 -5.51995e-05 
         200       22.978     0.999881   0.00118663 -5.50498e-05 
         200      23.0957     0.999882   0.00118663 -5.49025e-05 
         200      23.2137     0.999882   0.00118664 -5.47575e-05 
         200       23.332     0.999882   0.00118665 -5.46143e-05 
         200      23.4506     0.999883   0.00118667 -5.44722e-05 
         200      23.5695     0.999883    0.0011867 -5.43299e-05 
         200      23.6887     0.999884   0.00118673 -5.41864e-05 
         200      23.8081     0.999884   0.00118677 -5.40403e-05 
         200      23.9279     0.999884   0.00118681 -5.38906e-05 
         200       24.048     0.999884   0.00118684 -5.37366e-05 
         200      24.1684     0.999884   0.00118686  -5.3578e-05 
         200      24.2891     0.999884   0.00118688 -5.34153e-05 
         200      24.4101     0.999884    0.0011869 -5.32495e-05 
         200      24.5314     0.999885   0.00118692 -5.30825e-05 
         200       24.653     0.999885   0.00118695 -5.29172e-05 
         200      24.7749     0.999885     0.001187 -5.27569e-05 
         200      24.8971     0.999886   0.00118707  -5.2606e-05 
         200      25.0196     0.999887   0.00118715 -5.24691e-05 
         200      25.1424     0.999887   0.00118718 -5.23512e-05 
         200      25.2655     0.999887   0.00118709 -5.22567e-05 
         200      25.3889     0.999887   0.00118707 -5.21392e-05 
         200      25.5125     0.999887   0.00118709 -5.20037e-05 
         200      25.6365     0.999887    0.0011872 -5.18184e-05 
         200      25.7608     0.999888   0.00118747 -5.15413e-05 
         200      25.8854     0.999888   0.00118762 -5.12717e-05 
         200      26.0103     0.999889    0.0011872 -5.12632e-05 
         200      26.1355      0.99989   0.00118705 -5.11938e-05 
         200       26.261      0.99989   0.00118705 -5.10808e-05 
         200      26.3868     0.999889   0.00118714 -5.09383e-05 
         200      26.5129     0.999889   0.00118727  -5.0777e-05 
         200      26.6393      0.99989   0.00118741 -5.06049e-05 
         200      26.7661      0.99989   0.00118752 -5.04281e-05 
         200      26.8931      0.99989   0.00118761 -5.02505e-05 
         200      27.0204     0.999891   0.00118766 -5.00746e-05 
         200       27.148     0.999891   0.00118769 -4.99018e-05 
         200      27.2759     0.999892    0.0011877 -4.97324e-05 
         200      27.4041     0.999892   0.00118768 -4.95663e-05 
         200      27.5326     0.999893   0.00118767 -4.94027e-05 
         200      27.6614     0.999893   0.00118764 -4.92405e-05 
         200      27.7905     0.999893   0.00118762 -4.90787e-05 
         200      27.9199     0.999893   0.00118761 -4.89162e-05 
         200      28.0496     0.999894   0.00118761  -4.8752e-05 
         200      28.1796     0.999894   0.00118762 -4.85852e-05 
         200      28.3099     0.999894   0.00118764 -4.84153e-05 
         200      28.4405     0.999894   0.00118767 -4.82419e-05 
         200      28.5715     0.999894   0.00118772 -4.80648e-05 
         200      28.7027     0.999894   0.00118777 -4.78843e-05 
         200      28.8342     0.999895   0.00118782 -4.77006e-05 
         200       28.966     0.999895   0.00118788 -4.75143e-05 
         200      29.0981     0.999895   0.00118795 -4.73257e-05 
         200      29.2305     0.999896     0.001188 -4.71649e-05 
         200      29.3632     0.999896   0.00118804 -4.70211e-05 
         200      29.4963     0.999897   0.00118807 -4.68738e-05 
         200      29.6296     0.999897   0.00118809 -4.67236e-05 
         200      29.7632     0.999898   0.00118809  -4.6571e-05 
         200      29.8971     0.999898   0.00118807 -4.64161e-05 
         200      30.0313     0.999899   0.00118804 -4.62588e-05 
         200      30.1658     0.999899     0.001188  -4.6099e-05 
         200      30.3007     0.999899   0.00118796 -4.59364e-05 
         200      30.4358     0.999899   0.00118794 -4.57705e-05 
         200      30.5712       0.9999   0.00118797 -4.56013e-05 
         200      30.7069       0.9999   0.00118805 -4.54292e-05 