Variables = x, y, u, v, p

Zone, I=600, F=POINT
         300            0           -0           -0 -5.85354e-05 
         300     0.000417  0.000173377  2.84544e-11 -5.85353e-05 
         300     0.001671  0.000694757  4.56921e-10 -5.85349e-05 
         300     0.003762   0.00156414  2.31595e-09 -5.85342e-05 
         300     0.006687   0.00278028  7.31737e-09 -5.85332e-05 
         300      0.01045   0.00434484  1.78701e-08  -5.8532e-05 
         300     0.015048   0.00625657  3.70555e-08 -5.85305e-05 
         300     0.020484   0.00851672  6.86637e-08 -5.85287e-05 
         300     0.026753    0.0111232  1.17124e-07 -5.85267e-05 
         300     0.033862     0.014079  1.87641e-07 -5.85244e-05 
         300     0.041803    0.0173807   2.8597e-07 -5.85218e-05 
         300     0.050579    0.0210295  4.18648e-07 -5.85189e-05 
         300     0.060198    0.0250289  5.93029e-07 -5.85157e-05 
         300     0.070646     0.029373  8.16752e-07 -5.85123e-05 
         300     0.081937    0.0340675   1.0987e-06 -5.85086e-05 
         300     0.094057    0.0391066  1.44778e-06 -5.85046e-05 
         300     0.107021    0.0444966  1.87439e-06 -5.85004e-05 
         300     0.120813    0.0502307  2.38863e-06 -5.84959e-05 
         300      0.13545     0.056316  3.00248e-06 -5.84911e-05 
         300     0.150914    0.0627448  3.72716e-06  -5.8486e-05 
         300     0.167213    0.0695205  4.57566e-06 -5.84807e-05 
         300     0.184359    0.0766477  5.56204e-06 -5.84751e-05 
         300      0.20233    0.0841171  6.69906e-06 -5.84692e-05 
         300     0.221149    0.0919381  8.00289e-06  -5.8463e-05 
         300     0.240792       0.1001  9.48722e-06 -5.84566e-05 
         300     0.261284     0.108614    1.117e-05 -5.84498e-05 
         300     0.282599     0.117467  1.30657e-05 -5.84428e-05 
         300     0.304763     0.126671  1.51939e-05 -5.84356e-05 
         300      0.32775     0.136213    1.757e-05  -5.8428e-05 
         300     0.351587     0.146104  2.02155e-05 -5.84202e-05 
         300     0.376246     0.156331  2.31461e-05  -5.8412e-05 
         300      0.40174     0.166898   2.6383e-05 -5.84036e-05 
         300     0.428086     0.177811  2.99486e-05 -5.83949e-05 
         300     0.455252     0.189055  3.38592e-05 -5.83859e-05 
         300     0.483271     0.200641  3.81408e-05 -5.83767e-05 
         300     0.512109     0.212553  4.28095e-05 -5.83671e-05 
         300     0.541801     0.224802  4.78928e-05 -5.83572e-05 
         300     0.572311     0.237371  5.34067e-05  -5.8347e-05 
         300     0.603676     0.250271  5.93802e-05 -5.83365e-05 
         300     0.635857     0.263481  6.58282e-05 -5.83256e-05 
         300     0.668875     0.277006  7.27769e-05 -5.83145e-05 
         300     0.702748     0.290848   8.0253e-05  -5.8303e-05 
         300     0.737438     0.304984    8.827e-05 -5.82911e-05 
         300     0.772984     0.319424  9.68588e-05 -5.82789e-05 
         300     0.809345     0.334144  0.000106031 -5.82663e-05 
         300     0.846564     0.349152  0.000115817 -5.82533e-05 
         300     0.884597     0.364421  0.000126226 -5.82399e-05 
         300     0.923489     0.379958  0.000137288 -5.82261e-05 
         300     0.963194     0.395734  0.000149008 -5.82119e-05 
         300      1.00376     0.411755  0.000161416 -5.81972e-05 
         300      1.04514     0.427986  0.000174512 -5.81821e-05 
         300      1.08735     0.444423  0.000188313 -5.81664e-05 
         300      1.13042     0.461059   0.00020284 -5.81501e-05 
         300      1.17431     0.477856  0.000218081 -5.81334e-05 
         300      1.21905     0.494814   0.00023406  -5.8116e-05 
         300      1.26461     0.511893  0.000250758  -5.8098e-05 
         300      1.31103     0.529089  0.000268193 -5.80794e-05 
         300      1.35826     0.546358  0.000286338 -5.80601e-05 
         300      1.40635     0.563697  0.000305204   -5.804e-05 
         300      1.45525     0.581056  0.000324753 -5.80191e-05 
         300      1.50498     0.598418  0.000344977 -5.79972e-05 
         300      1.55558     0.615762  0.000365867 -5.79749e-05 
         300      1.60699     0.633038  0.000387364 -5.79515e-05 
         300      1.65927     0.650234   0.00040946 -5.79271e-05 
         300      1.71235     0.667295  0.000432087 -5.79017e-05 
         300      1.76629     0.684207  0.000455226 -5.78752e-05 
         300      1.82104     0.700916  0.000478798 -5.78476e-05 
         300      1.87666     0.717406  0.000502773 -5.78189e-05 
         300      1.93309      0.73362  0.000527061 -5.77891e-05 
         300      1.99034     0.749535  0.000551607  -5.7758e-05 
         300      2.04847     0.765123  0.000576354 -5.77257e-05 
         300       2.1074     0.780331  0.000601195  -5.7692e-05 
         300      2.16721     0.795144  0.000626078  -5.7657e-05 
         300      2.22781     0.809511   0.00065089 -5.76206e-05 
         300      2.28928      0.82342  0.000675575 -5.75827e-05 
         300      2.35156     0.836825  0.000700014 -5.75433e-05 
         300       2.4147     0.849717  0.000724149 -5.75025e-05 
         300      2.47865     0.862055  0.000747863 -5.74601e-05 
         300      2.54347     0.873836  0.000771099 -5.74163e-05 
         300      2.60909     0.885028  0.000793744  -5.7371e-05 
         300      2.67554     0.895624  0.000815733 -5.73242e-05 
         300      2.74287     0.905622  0.000837004 -5.72758e-05 
         300        2.811     0.915004  0.000857462 -5.72261e-05 
         300         2.88     0.923779   0.00087707 -5.71749e-05 
         300      2.94979      0.93194  0.000895749 -5.71222e-05 
         300      3.02047     0.939503  0.000913476  -5.7068e-05 
         300      3.09194     0.946469  0.000930194 -5.70124e-05 
         300      3.16429      0.95286  0.000945895 -5.69554e-05 
         300      3.23743     0.958688  0.000960544 -5.68969e-05 
         300       3.3114     0.963977  0.000974143 -5.68372e-05 
         300      3.38626     0.968752  0.000986703 -5.67761e-05 
         300      3.46191     0.973035  0.000998221  -5.6714e-05 
         300      3.53844     0.976858   0.00100873 -5.66513e-05 
         300      3.61576     0.980246   0.00101825 -5.65885e-05 
         300      3.69396     0.983234   0.00102683 -5.65263e-05 
         300      3.77295     0.985849    0.0010345 -5.64652e-05 
         300      3.85283     0.988126   0.00104131  -5.6401e-05 
         300      3.93349     0.990093   0.00104733 -5.63325e-05 
         300      4.01504     0.991783   0.00105262  -5.6259e-05 
         300      4.09737     0.993223   0.00105722 -5.61814e-05 
         300      4.18054     0.994442    0.0010612 -5.61018e-05 
         300       4.2646     0.995467    0.0010646  -5.6024e-05 
         300      4.34945     0.996321   0.00106749 -5.59552e-05 
         300      4.43518     0.997029   0.00106991 -5.58944e-05 
         300      4.52169      0.99761     0.001072 -5.58056e-05 
         300      4.60909     0.998083   0.00107371 -5.57304e-05 
         300      4.69728     0.998466   0.00107512 -5.56592e-05 
         300      4.78636     0.998773   0.00107627  -5.5586e-05 
         300      4.87621     0.999017    0.0010772 -5.55087e-05 
         300      4.96691     0.999209   0.00107795 -5.54272e-05 
         300      5.05849     0.999359   0.00107856 -5.53435e-05 
         300      5.15086     0.999475   0.00107904 -5.52599e-05 
         300      5.24411     0.999564   0.00107943 -5.51778e-05 
         300      5.33815     0.999632   0.00107973 -5.50964e-05 
         300      5.43308     0.999683   0.00107995 -5.50102e-05 
         300      5.52879     0.999721   0.00108012 -5.49243e-05 
         300       5.6254     0.999749   0.00108026 -5.48425e-05 
         300      5.72278      0.99977   0.00108036 -5.47593e-05 
         300      5.82099     0.999785   0.00108043 -5.46763e-05 
         300      5.92011     0.999796   0.00108049 -5.45932e-05 
         300         6.02     0.999804   0.00108054 -5.45095e-05 
         300      6.12078     0.999809   0.00108058  -5.4425e-05 
         300      6.22234     0.999813   0.00108062 -5.43403e-05 
         300       6.3248     0.999816   0.00108064 -5.42547e-05 
         300      6.42803     0.999817   0.00108068 -5.41639e-05 
         300      6.53216     0.999819   0.00108069 -5.40753e-05 
         300      6.63707      0.99982   0.00108071 -5.39824e-05 
         300      6.74287     0.999821   0.00108073 -5.38878e-05 
         300      6.84945     0.999821   0.00108075 -5.37937e-05 
         300      6.95686     0.999822   0.00108077 -5.37002e-05 
         300      7.06517     0.999822   0.00108079 -5.36069e-05 
         300      7.17426     0.999823   0.00108081 -5.35128e-05 
         300      7.28424     0.999823   0.00108083 -5.34168e-05 
         300        7.395     0.999823   0.00108085 -5.33184e-05 
         300      7.50666     0.999824   0.00108086 -5.32175e-05 
         300      7.61908     0.999824   0.00108088 -5.31147e-05 
         300      7.73241     0.999824   0.00108089 -5.30113e-05 
         300      7.84651     0.999825   0.00108089 -5.29089e-05 
         300      7.96145     0.999825   0.00108091 -5.28089e-05 
         300      8.07729     0.999825   0.00108092  -5.2712e-05 
         300      8.19389     0.999825   0.00108095 -5.26172e-05 
         300      8.31141     0.999826   0.00108099 -5.25204e-05 
         300      8.42969     0.999826   0.00108101  -5.2413e-05 
         300      8.54887     0.999826   0.00108096 -5.22797e-05 
         300      8.66882     0.999826   0.00108099 -5.22124e-05 
         300      8.78968     0.999828   0.00108106 -5.21107e-05 
         300      8.91131     0.999828   0.00108111 -5.20062e-05 
         300      9.03384     0.999828   0.00108106 -5.18954e-05 
         300      9.15713     0.999828   0.00108104 -5.17822e-05 
         300      9.28126     0.999828   0.00108106 -5.16683e-05 
         300       9.4063     0.999829   0.00108111 -5.15543e-05 
         300       9.5321     0.999829   0.00108116 -5.14404e-05 
         300      9.65882      0.99983    0.0010812 -5.13321e-05 
         300      9.78629      0.99983   0.00108121  -5.1225e-05 
         300      9.91468      0.99983    0.0010812 -5.11152e-05 
         300      10.0438      0.99983   0.00108118 -5.10036e-05 
         300      10.1739     0.999831   0.00108118 -5.08902e-05 
         300      10.3047     0.999831   0.00108122 -5.07758e-05 
         300      10.4363     0.999831   0.00108127 -5.06606e-05 
         300      10.5689     0.999832   0.00108133  -5.0545e-05 
         300      10.7022     0.999833   0.00108137 -5.04291e-05 
         300      10.8365     0.999833   0.00108138 -5.03123e-05 
         300      10.9715     0.999833   0.00108135 -5.01941e-05 
         300      11.1074     0.999833   0.00108133 -5.00733e-05 
         300      11.2441     0.999833   0.00108135 -4.99497e-05 
         300      11.3816     0.999834   0.00108143 -4.98243e-05 
         300        11.52     0.999834   0.00108146 -4.97019e-05 
         300      11.6592     0.999835   0.00108143 -4.95672e-05 
         300      11.7993     0.999836   0.00108146 -4.94437e-05 
         300      11.9401     0.999836   0.00108147 -4.93442e-05 
         300      12.0819     0.999836   0.00108154 -4.92604e-05 
         300      12.2244     0.999836   0.00108139 -4.91007e-05 
         300      12.3678     0.999837   0.00108143 -4.89618e-05 
         300       12.512     0.999837   0.00108153 -4.88365e-05 
         300      12.6571     0.999837   0.00108163  -4.8718e-05 
         300       12.803     0.999838    0.0010817 -4.86015e-05 
         300      12.9498     0.999838   0.00108172 -4.84828e-05 
         300      13.0973     0.999839   0.00108171 -4.83598e-05 
         300      13.2457     0.999839   0.00108169 -4.82312e-05 
         300       13.395      0.99984   0.00108166  -4.8097e-05 
         300       13.545      0.99984   0.00108165 -4.79584e-05 
         300       13.696      0.99984   0.00108165 -4.78167e-05 
         300      13.8477     0.999841   0.00108168 -4.76742e-05 
         300      14.0004     0.999841   0.00108173 -4.75328e-05 
         300      14.1537     0.999842   0.00108178 -4.73941e-05 
         300      14.3081     0.999842   0.00108184 -4.72593e-05 
         300      14.4631     0.999842   0.00108188 -4.71286e-05 
         300       14.619     0.999843   0.00108191 -4.70012e-05 
         300      14.7758     0.999844   0.00108191 -4.68753e-05 
         300      14.9334     0.999844    0.0010819 -4.67485e-05 
         300      15.0919     0.999844   0.00108189 -4.66173e-05 
         300      15.2511     0.999845   0.00108188 -4.64789e-05 
         300      15.4113     0.999845    0.0010819 -4.63314e-05 
         300      15.5722     0.999845   0.00108195 -4.61756e-05 
         300      15.7341     0.999846   0.00108203 -4.60161e-05 
         300      15.8966     0.999847    0.0010821 -4.58648e-05 
         300      16.0602     0.999847   0.00108209 -4.57429e-05 
         300      16.2244     0.999846   0.00108186 -4.56762e-05 
         300      16.3895     0.999848   0.00108209 -4.54331e-05 
         300      16.5555     0.999849   0.00108211  -4.5244e-05 
         300      16.7223     0.999849   0.00108204 -4.51295e-05 
         300        16.89     0.999849   0.00108211 -4.49671e-05 
         300      17.0584     0.999849   0.00108211 -4.48398e-05 
         300      17.2278      0.99985    0.0010819   -4.468e-05 
         300      17.3979      0.99985   0.00108209 -4.45734e-05 
         300      17.5689     0.999851   0.00108218 -4.44422e-05 
         300      17.7407     0.999851    0.0010822 -4.42909e-05 
         300      17.9133     0.999852   0.00108219 -4.41287e-05 
         300      18.0869     0.999852   0.00108218 -4.39625e-05 
         300      18.2611     0.999853    0.0010822  -4.3797e-05 
         300      18.4364     0.999854   0.00108223 -4.36347e-05 
         300      18.6123     0.999854   0.00108228 -4.34768e-05 
         300      18.7892     0.999855   0.00108234 -4.33231e-05 
         300      18.9669     0.999855    0.0010824 -4.31728e-05 
         300      19.1454     0.999855   0.00108245 -4.30243e-05 
         300      19.3247     0.999856   0.00108248  -4.2876e-05 
         300       19.505     0.999856    0.0010825  -4.2726e-05 
         300      19.6859     0.999857   0.00108249 -4.25731e-05 
         300      19.8677     0.999857   0.00108248 -4.24161e-05 
         300      20.0505     0.999858   0.00108246 -4.22543e-05 
         300       20.234     0.999858   0.00108245  -4.2088e-05 
         300      20.4184     0.999859   0.00108245 -4.19177e-05 
         300      20.6035     0.999859   0.00108248 -4.17448e-05 
         300      20.7896      0.99986   0.00108253 -4.15708e-05 
         300      20.9765      0.99986    0.0010826 -4.13979e-05 
         300      21.1642     0.999861   0.00108267 -4.12278e-05 
         300      21.3527     0.999861   0.00108274 -4.10623e-05 
         300      21.5421     0.999862   0.00108278 -4.09018e-05 
         300      21.7323     0.999863   0.00108278 -4.07455e-05 
         300      21.9233     0.999863   0.00108271 -4.05906e-05 
         300      22.1153     0.999863   0.00108262 -4.04309e-05 
         300       22.308     0.999864   0.00108257 -4.02567e-05 
         300      22.5016     0.999864   0.00108271 -4.00527e-05 
         300      22.6959     0.999865   0.00108272 -3.99023e-05 
         300      22.8912     0.999865   0.00108287 -3.97561e-05 
         300      23.0872     0.999866   0.00108246 -3.96521e-05 
         300      23.2841     0.999867   0.00108293 -3.93746e-05 
         300      23.4819     0.999867   0.00108302 -3.90976e-05 
         300      23.6804     0.999868   0.00108273 -3.87906e-05 
         300      23.8799     0.999868   0.00108284 -3.86662e-05 
         300      24.0801     0.999869   0.00108306 -3.86175e-05 
         300      24.2813      0.99987   0.00108313 -3.85278e-05 
         300      24.4831      0.99987   0.00108312 -3.83981e-05 
         300       24.686     0.999871   0.00108306 -3.82336e-05 
         300      24.8895     0.999871   0.00108299 -3.80424e-05 
         300       25.094     0.999871   0.00108295 -3.78332e-05 
         300      25.2992     0.999872   0.00108294 -3.76153e-05 
         300      25.5052     0.999872   0.00108297 -3.73963e-05 
         300      25.7123     0.999873   0.00108302 -3.71826e-05 
         300        25.92     0.999874    0.0010831 -3.69787e-05 
         300      26.1287     0.999874   0.00108319 -3.67865e-05 
         300       26.338     0.999875   0.00108327 -3.66064e-05 
         300      26.5484     0.999875   0.00108334 -3.64362e-05 
         300      26.7595     0.999876   0.00108338  -3.6273e-05 
         300      26.9715     0.999877   0.00108339 -3.61124e-05 
         300      27.1842     0.999877   0.00108338   -3.595e-05 
         300      27.3978     0.999878   0.00108335 -3.57814e-05 
         300      27.6123     0.999879   0.00108331 -3.56032e-05 
         300      27.8276     0.999879   0.00108328 -3.54138e-05 
         300      28.0438      0.99988   0.00108327  -3.5213e-05 
         300      28.2607      0.99988   0.00108328  -3.5003e-05 
         300      28.4786     0.999881   0.00108332 -3.47877e-05 
         300      28.6972     0.999881   0.00108338 -3.45732e-05 
         300      28.9167     0.999882   0.00108344 -3.43657e-05 
         300       29.137     0.999882   0.00108349 -3.41715e-05 
         300      29.3582     0.999883   0.00108352 -3.39935e-05 
         300      29.5801     0.999884    0.0010835 -3.38299e-05 
         300      29.8029     0.999884   0.00108346 -3.36691e-05 
         300      30.0266     0.999885   0.00108347 -3.34861e-05 
         300      30.2511     0.999886   0.00108368 -3.32363e-05 
         300      30.4765     0.999886   0.00108368 -3.30614e-05 
         300      30.7026     0.999887   0.00108353  -3.2903e-05 
         300      30.9297     0.999887   0.00108352 -3.26879e-05 
         300      31.1574     0.999888   0.00108359 -3.24519e-05 
         300      31.3862     0.999888   0.00108368  -3.2217e-05 
         300      31.6156     0.999889   0.00108377 -3.19956e-05 
         300      31.8459      0.99989   0.00108383 -3.17916e-05 
         300      32.0772     0.999891   0.00108385 -3.16033e-05 
         300      32.3092     0.999891   0.00108385 -3.14258e-05 
         300      32.5421     0.999892   0.00108382 -3.12519e-05 
         300      32.7757     0.999893   0.00108378 -3.10746e-05 
         300      33.0103     0.999893   0.00108374 -3.08871e-05 
         300      33.2456     0.999894   0.00108371 -3.06847e-05 
         300      33.4819     0.999894    0.0010837 -3.04648e-05 
         300      33.7189     0.999894   0.00108371  -3.0228e-05 
         300      33.9567     0.999895   0.00108376 -2.99777e-05 
         300      34.1955     0.999896   0.00108384 -2.97198e-05 
         300       34.435     0.999897   0.00108397 -2.94636e-05 
         300      34.6754     0.999898    0.0010842 -2.92198e-05 
         300      34.9166     0.999899   0.00108428  -2.8968e-05 
         300      35.1587     0.999899   0.00108422 -2.87208e-05 
         300      35.4016       0.9999   0.00108418  -2.8498e-05 
         300      35.6454       0.9999   0.00108415 -2.82929e-05 
         300      35.8899     0.999901   0.00108412 -2.80997e-05 
         300      36.1353     0.999901   0.00108409 -2.79124e-05 
         300      36.3815     0.999902   0.00108407 -2.77259e-05 
         300      36.6285     0.999903   0.00108407 -2.75349e-05 
         300      36.8765     0.999904    0.0010841 -2.73349e-05 
         300      37.1252     0.999905   0.00108414 -2.71226e-05 
         300      37.3749     0.999906   0.00108418 -2.68959e-05 
         300      37.6252     0.999906    0.0010842 -2.66563e-05 
         300      37.8765     0.999907   0.00108418 -2.64088e-05 
         300      38.1286     0.999907   0.00108415 -2.61652e-05 
         300      38.3816     0.999908   0.00108419 -2.59453e-05 
         300      38.6353     0.999908    0.0010843 -2.57388e-05 
         300      38.8898     0.999908   0.00108427 -2.54849e-05 
         300      39.1453     0.999909   0.00108434 -2.52449e-05 
         300      39.4015      0.99991   0.00108444 -2.50151e-05 
         300      39.6587     0.999911    0.0010845 -2.47922e-05 
         300      39.9166     0.999912   0.00108453 -2.45743e-05 
         300      40.1754     0.999913   0.00108452 -2.43595e-05 
         300       40.435     0.999914    0.0010845 -2.41466e-05 
         300      40.6955     0.999915   0.00108447 -2.39344e-05 
         300      40.9567     0.999916   0.00108445 -2.37222e-05 
         300      41.2189     0.999916   0.00108445 -2.35088e-05 
         300      41.4818     0.999917   0.00108447 -2.32935e-05 
         300      41.7456     0.999917   0.00108452 -2.30754e-05 
         300      42.0103     0.999918   0.00108457 -2.28534e-05 
         300      42.2757     0.999918   0.00108463 -2.26271e-05 
         300      42.5421     0.999919   0.00108467 -2.23956e-05 
         300      42.8091     0.999919   0.00108469 -2.21589e-05 
         300      43.0772      0.99992   0.00108468 -2.19164e-05 
         300      43.3459     0.999921   0.00108464 -2.16688e-05 
         300      43.6157     0.999922   0.00108457 -2.14161e-05 
         300      43.8861     0.999923   0.00108448 -2.11598e-05 
         300      44.1573     0.999923   0.00108439 -2.09007e-05 
         300      44.4296     0.999924   0.00108432 -2.06403e-05 
         300      44.7025     0.999925   0.00108429 -2.03805e-05 
         300      44.9764     0.999925   0.00108431 -2.01223e-05 
         300       45.251     0.999926   0.00108441 -1.98672e-05 
         300      45.5266     0.999926   0.00108457 -1.96149e-05 
         300      45.8029     0.999926    0.0010848 -1.93647e-05 
         300      46.0801     0.999927   0.00108504 -1.91131e-05 
         300      46.3581     0.999928   0.00108522 -1.88544e-05 
         300      46.6368     0.999929   0.00108526 -1.85785e-05 
         300      46.9166      0.99993   0.00108502 -1.82706e-05 
         300       47.197     0.999932   0.00108431 -1.79097e-05 
         300      47.4785     0.999933   0.00108343  -1.7575e-05 
         300      47.7606     0.999932   0.00108454  -1.7584e-05 
         300      48.0437     0.999932   0.00108584 -1.73085e-05 
         300      48.3275     0.999935   0.00108538 -1.70119e-05 
         300      48.6123     0.999936   0.00108485 -1.67939e-05 
         300      48.8978     0.999936   0.00108467 -1.65976e-05 
         300      49.1842     0.999936   0.00108465 -1.64187e-05 
         300      49.4714     0.999936   0.00108468 -1.62544e-05 
         300      49.7593     0.999936    0.0010847 -1.61021e-05 
         300      50.0483     0.999937   0.00108489 -1.57849e-05 
         300      50.3379     0.999938   0.00108501 -1.54667e-05 
         300      50.6286     0.999939   0.00108508 -1.51502e-05 
         300      50.9199      0.99994   0.00108509  -1.4838e-05 
         300      51.2122     0.999941   0.00108508 -1.45314e-05 
         300      51.5052     0.999942   0.00108505 -1.42321e-05 
         300      51.7992     0.999943   0.00108502 -1.39405e-05 
         300      52.0938     0.999944   0.00108499 -1.36575e-05 
         300      52.3893     0.999944   0.00108497 -1.33827e-05 
         300      52.6858     0.999945   0.00108497 -1.31159e-05 
         300       52.983     0.999946   0.00108498 -1.28565e-05 
         300      53.2811     0.999947   0.00108501 -1.26034e-05 
         300        53.58     0.999947   0.00108503 -1.23557e-05 
         300      53.8798     0.999948   0.00108506 -1.21117e-05 
         300      54.1803     0.999949   0.00108509 -1.18702e-05 
         300      54.4819      0.99995   0.00108511 -1.16293e-05 
         300       54.784     0.999951   0.00108512 -1.13875e-05 
         300      55.0872     0.999952   0.00108513 -1.11429e-05 
         300      55.3911     0.999953   0.00108513 -1.08941e-05 
         300      55.6957     0.999954   0.00108513 -1.06397e-05 
         300      56.0014     0.999955   0.00108514 -1.03781e-05 
         300      56.3078     0.999955   0.00108514  -1.0109e-05 
         300      56.6152     0.999956   0.00108515 -9.83153e-06 
         300      56.9232     0.999957   0.00108515 -9.54636e-06 
         300      57.2323     0.999957   0.00108515 -9.25411e-06 
         300      57.5419     0.999958   0.00108514 -8.95704e-06 
         300      57.8527     0.999959   0.00108513 -8.65782e-06 
         300       58.164     0.999961   0.00108514 -8.36118e-06 
         300      58.4762     0.999962    0.0010852 -8.07286e-06 
         300      58.7895     0.999962    0.0010854 -7.80045e-06 
         300      59.1034     0.999962    0.0010852 -7.47317e-06 
         300      59.4183     0.999962   0.00108509 -7.16941e-06 
         300      59.7338     0.999963   0.00108511  -6.8917e-06 
         300      60.0504     0.999965   0.00108519 -6.62651e-06 
         300      60.3676     0.999966   0.00108528 -6.36427e-06 
         300      60.6858     0.999967   0.00108536 -6.09762e-06 
         300      61.0047     0.999968   0.00108541 -5.82239e-06 
         300      61.3245     0.999968   0.00108542 -5.53624e-06 
         300      61.6452     0.999969   0.00108541 -5.23895e-06 
         300      61.9666      0.99997   0.00108536 -4.93294e-06 
         300      62.2891      0.99997   0.00108529 -4.62201e-06 
         300      62.6121     0.999971   0.00108522 -4.31295e-06 
         300      62.9362     0.999971   0.00108517 -4.01424e-06 
         300       63.261     0.999972   0.00108516 -3.73784e-06 
         300      63.5868     0.999973   0.00108523 -3.49814e-06 
         300      63.9132     0.999975   0.00108543 -3.31379e-06 
         300      64.2406     0.999976   0.00108584 -3.20713e-06 
         300      64.5687     0.999977   0.00108571 -2.88831e-06 
         300      64.8976     0.999978   0.00108523 -2.40833e-06 
         300      65.2276     0.999978   0.00108496 -1.98593e-06 
         300      65.5582     0.999978   0.00108488 -1.61268e-06 
         300      65.8898     0.999978   0.00108495 -1.27954e-06 
         300      66.2221     0.999979   0.00108512 -9.78588e-07 
         300      66.5554      0.99998   0.00108532 -7.01417e-07 
         300      66.8893      0.99998   0.00108551  -4.4058e-07 
         300      67.2243     0.999981   0.00108565 -1.88297e-07 
         300      67.5599     0.999983   0.00108569  6.21821e-08 
         300      67.8964     0.999984   0.00108564  3.17487e-07 
         300      68.2338     0.999985   0.00108551  5.83435e-07 
         300       68.572     0.999986   0.00108533  8.64187e-07 
         300      68.9111     0.999988   0.00108516   1.1629e-06 
         300      69.2509     0.999989   0.00108506  1.47975e-06 
         300      69.5917      0.99999   0.00108508  1.81256e-06 
         300      69.9332     0.999991   0.00108524  2.15434e-06 
         300      70.2757     0.999992   0.00108548   2.4936e-06 
         300      70.6188     0.999992   0.00108562  2.81135e-06 
         300       70.963     0.999991   0.00108531  3.08097e-06 
         300      71.3078     0.999991   0.00108514  3.38146e-06 
         300      71.6535     0.999993    0.0010856  3.74758e-06 
         300      72.0001     0.999995    0.0010857  4.07612e-06 
         300      72.3475     0.999996   0.00108562  4.38442e-06 
         300      72.6958     0.999997   0.00108545  4.68498e-06 
         300      73.0448     0.999998   0.00108528  4.98512e-06 
         300      73.3948     0.999998   0.00108516  5.28944e-06 
         300      73.7455     0.999999   0.00108508  5.59925e-06 
         300      74.0972            1   0.00108507  5.91485e-06 
         300      74.4495            1   0.00108511  6.23467e-06 
         300      74.8027            1   0.00108519  6.55715e-06 
         300      75.1569            1   0.00108528  6.88061e-06 
         300      75.5117            1   0.00108538  7.20304e-06 
         300      75.8676            1   0.00108545   7.5236e-06 
         300      76.2241            1    0.0010855  7.84131e-06 
         300      76.5817      1.00001   0.00108552  8.15662e-06 
         300      76.9399      1.00001    0.0010855  8.46982e-06 
         300      77.2991      1.00001   0.00108544  8.78251e-06 
         300      77.6589      1.00001   0.00108536  9.09589e-06 
         300      78.0198      1.00001   0.00108527  9.41208e-06 
         300      78.3814      1.00001   0.00108518  9.73232e-06 
         300      78.7437      1.00001   0.00108512   1.0058e-05 
         300      79.1071      1.00001   0.00108511  1.03899e-05 
         300      79.4712      1.00001   0.00108515  1.07269e-05 
         300      79.8363      1.00001   0.00108495  1.10729e-05 
         300       80.202      1.00001   0.00108483  1.14117e-05 
         300      80.5687      1.00001   0.00108482  1.17468e-05 
         300      80.9361      1.00002   0.00108488  1.20799e-05 
         300      81.3045      1.00002     0.001085  1.24125e-05 
         300      81.6736      1.00002   0.00108516  1.27443e-05 
         300      82.0435      1.00002   0.00108529  1.30749e-05 
         300      82.4144      1.00002   0.00108537  1.34036e-05 
         300       82.786      1.00002   0.00108535  1.37293e-05 
         300      83.1586      1.00002   0.00108521  1.40523e-05 
         300      83.5318      1.00002   0.00108494   1.4374e-05 
         300      83.9061      1.00002   0.00108461  1.46994e-05 
         300       84.281      1.00002   0.00108436   1.5037e-05 
         300      84.6569      1.00002   0.00108443   1.5402e-05 
         300      85.0335      1.00002   0.00108523  1.58167e-05 
         300      85.4109      1.00002   0.00108476  1.59864e-05 