Variables = x, y, u, v, p

Zone, I=1000, F=POINT
         450            0           -0           -0 -4.11976e-05 
         450      0.00015  5.61003e-05  2.67427e-12 -4.11975e-05 
         450     0.000601  0.000224775  4.29323e-11 -4.11974e-05 
         450     0.001352   0.00050565  2.17265e-10 -4.11973e-05 
         450     0.002404    0.0008991  6.86921e-10  -4.1197e-05 
         450     0.003757   0.00140513  1.67773e-09 -4.11967e-05 
         450      0.00541   0.00202335  3.47883e-09 -4.11963e-05 
         450     0.007364   0.00275415  6.44565e-09 -4.11958e-05 
         450     0.009619   0.00359753  1.09976e-08 -4.11953e-05 
         450     0.012174    0.0045531   1.7616e-08 -4.11947e-05 
         450      0.01503   0.00562126  2.68509e-08  -4.1194e-05 
         450     0.018186   0.00680161  3.93111e-08 -4.11933e-05 
         450     0.021643   0.00809454  5.56771e-08 -4.11924e-05 
         450       0.0254   0.00949967  7.66849e-08 -4.11915e-05 
         450     0.029458    0.0110174  1.03145e-07 -4.11906e-05 
         450     0.033817    0.0126477   1.3593e-07 -4.11895e-05 
         450     0.038476    0.0143901  1.75964e-07 -4.11884e-05 
         450     0.043436    0.0162452  2.24257e-07 -4.11873e-05 
         450     0.048697    0.0182128  2.81871e-07  -4.1186e-05 
         450     0.054258    0.0202927  3.49925e-07 -4.11847e-05 
         450      0.06012    0.0224851  4.29621e-07 -4.11833e-05 
         450     0.066282    0.0247897  5.22203e-07 -4.11818e-05 
         450     0.072745    0.0272069  6.29007e-07 -4.11803e-05 
         450     0.079508    0.0297362    7.514e-07 -4.11787e-05 
         450     0.086572    0.0323782   8.9085e-07  -4.1177e-05 
         450     0.093937    0.0351327  1.04887e-06 -4.11752e-05 
         450     0.101602    0.0379994  1.22703e-06 -4.11734e-05 
         450     0.109568    0.0409786  1.42698e-06 -4.11715e-05 
         450     0.117835    0.0440704  1.65043e-06 -4.11696e-05 
         450     0.126402    0.0472743  1.89913e-06 -4.11675e-05 
         450      0.13527    0.0505907  2.17495e-06 -4.11654e-05 
         450     0.144438    0.0540193  2.47975e-06 -4.11632e-05 
         450     0.153907    0.0575604  2.81552e-06  -4.1161e-05 
         450     0.163676    0.0612136  3.18426e-06 -4.11587e-05 
         450     0.173746    0.0649792   3.5881e-06 -4.11563e-05 
         450     0.184117    0.0688572  4.02919e-06 -4.11538e-05 
         450     0.194788    0.0728473   4.5097e-06 -4.11513e-05 
         450      0.20576    0.0769497  5.03197e-06 -4.11487e-05 
         450     0.217033    0.0811645  5.59835e-06  -4.1146e-05 
         450     0.228606    0.0854911  6.21117e-06 -4.11432e-05 
         450      0.24048      0.08993  6.87298e-06 -4.11404e-05 
         450     0.252654    0.0944806  7.58624e-06 -4.11375e-05 
         450     0.265129    0.0991434   8.3536e-06 -4.11345e-05 
         450     0.277904     0.103918  9.17766e-06 -4.11315e-05 
         450     0.290981     0.108804  1.00612e-05 -4.11284e-05 
         450     0.304357     0.113802   1.1007e-05 -4.11252e-05 
         450     0.318035     0.118912  1.20178e-05 -4.11219e-05 
         450     0.332013     0.124133  1.30966e-05 -4.11186e-05 
         450     0.346291     0.129465  1.42462e-05 -4.11152e-05 
         450      0.36087     0.134909  1.54697e-05 -4.11117e-05 
         450      0.37575     0.140463  1.67703e-05 -4.11081e-05 
         450      0.39093     0.146128  1.81509e-05 -4.11045e-05 
         450     0.406411     0.151904  1.96147e-05 -4.11008e-05 
         450     0.422193     0.157791  2.11651e-05  -4.1097e-05 
         450     0.438275     0.163787  2.28051e-05 -4.10932e-05 
         450     0.454657     0.169893  2.45382e-05 -4.10893e-05 
         450     0.471341     0.176109  2.63678e-05 -4.10853e-05 
         450     0.488325     0.182434  2.82972e-05 -4.10812e-05 
         450     0.505609     0.188868  3.03299e-05  -4.1077e-05 
         450     0.523194      0.19541  3.24693e-05 -4.10728e-05 
         450      0.54108      0.20206  3.47192e-05 -4.10685e-05 
         450     0.559266     0.208818  3.70828e-05 -4.10641e-05 
         450     0.577753     0.215683   3.9564e-05 -4.10597e-05 
         450     0.596541     0.222654  4.21664e-05 -4.10551e-05 
         450     0.615629     0.229732  4.48933e-05 -4.10505e-05 
         450     0.635018     0.236914  4.77487e-05 -4.10458e-05 
         450     0.654707     0.244201  5.07362e-05  -4.1041e-05 
         450     0.674697     0.251592  5.38596e-05 -4.10361e-05 
         450     0.694987     0.259086  5.71225e-05 -4.10312e-05 
         450     0.715579     0.266682  6.05288e-05 -4.10262e-05 
         450      0.73647     0.274379  6.40816e-05  -4.1021e-05 
         450     0.757663     0.282177  6.77853e-05 -4.10158e-05 
         450     0.779155     0.290073   7.1643e-05 -4.10105e-05 
         450     0.800949     0.298068  7.56587e-05 -4.10051e-05 
         450     0.823043     0.306159  7.98359e-05 -4.09996e-05 
         450     0.845438     0.314346  8.41782e-05 -4.09941e-05 
         450     0.868133     0.322627  8.86891e-05 -4.09884e-05 
         450     0.891129     0.331001  9.33721e-05 -4.09826e-05 
         450     0.914426     0.339465  9.82307e-05 -4.09767e-05 
         450     0.938023     0.348019  0.000103268 -4.09708e-05 
         450      0.96192      0.35666  0.000108487 -4.09647e-05 
         450     0.986119     0.365388  0.000113892 -4.09586e-05 
         450      1.01062     0.374199  0.000119485 -4.09523e-05 
         450      1.03542     0.383091  0.000125269 -4.09459e-05 
         450      1.06052     0.392063  0.000131247 -4.09394e-05 
         450      1.08592     0.401112  0.000137421 -4.09328e-05 
         450      1.11162     0.410235  0.000143795  -4.0926e-05 
         450      1.13762     0.419431   0.00015037 -4.09192e-05 
         450      1.16392     0.428696  0.000157149 -4.09121e-05 
         450      1.19053     0.438026  0.000164133  -4.0905e-05 
         450      1.21743     0.447421  0.000171324 -4.08977e-05 
         450      1.24463     0.456875  0.000178724 -4.08903e-05 
         450      1.27214     0.466386  0.000186333 -4.08828e-05 
         450      1.29994     0.475951  0.000194154 -4.08751e-05 
         450      1.32805     0.485566  0.000202186 -4.08673e-05 
         450      1.35646     0.495226   0.00021043 -4.08593e-05 
         450      1.38517     0.504928  0.000218886 -4.08512e-05 
         450      1.41417     0.514669  0.000227553  -4.0843e-05 
         450      1.44348     0.524443  0.000236432 -4.08345e-05 
         450      1.47309     0.534246  0.000245522 -4.08259e-05 
         450        1.503     0.544075  0.000254822 -4.08169e-05 
         450      1.53321     0.553923  0.000264328 -4.08069e-05 
         450      1.56372     0.563786  0.000274038 -4.07972e-05 
         450      1.59453      0.57366  0.000283949 -4.07878e-05 
         450      1.62565     0.583539   0.00029406 -4.07784e-05 
         450      1.65706     0.593417  0.000304366 -4.07691e-05 
         450      1.68877     0.603289  0.000314864 -4.07596e-05 
         450      1.72079      0.61315   0.00032555 -4.07499e-05 
         450       1.7531     0.622994  0.000336419 -4.07399e-05 
         450      1.78572     0.632814  0.000347465 -4.07295e-05 
         450      1.81863     0.642605  0.000358683 -4.07187e-05 
         450      1.85185     0.652362  0.000370065 -4.07076e-05 
         450      1.88536     0.662076  0.000381605  -4.0696e-05 
         450      1.91918     0.671743  0.000393295  -4.0684e-05 
         450       1.9533     0.681356  0.000405127 -4.06716e-05 
         450      1.98772     0.690908  0.000417092 -4.06588e-05 
         450      2.02244     0.700393  0.000429181 -4.06458e-05 
         450      2.05746     0.709804  0.000441384 -4.06324e-05 
         450      2.09278     0.719135  0.000453692 -4.06187e-05 
         450       2.1284      0.72838  0.000466092 -4.06047e-05 
         450      2.16432      0.73753  0.000478575 -4.05905e-05 
         450      2.20054     0.746581  0.000491129 -4.05762e-05 
         450      2.23707     0.755525   0.00050374 -4.05616e-05 
         450      2.27389     0.764356  0.000516398 -4.05468e-05 
         450      2.31101     0.773068   0.00052909 -4.05318e-05 
         450      2.34844     0.781654  0.000541801 -4.05166e-05 
         450      2.38617     0.790109  0.000554519 -4.05011e-05 
         450      2.42419     0.798425  0.000567229 -4.04855e-05 
         450      2.46252     0.806598  0.000579918 -4.04695e-05 
         450      2.50114     0.814622  0.000592572 -4.04532e-05 
         450      2.54007     0.822492  0.000605176 -4.04365e-05 
         450       2.5793     0.830201  0.000617715 -4.04195e-05 
         450      2.61883     0.837746  0.000630175  -4.0402e-05 
         450      2.65866     0.845121  0.000642541  -4.0384e-05 
         450      2.69879     0.852323  0.000654798 -4.03655e-05 
         450      2.73922     0.859346  0.000666933 -4.03464e-05 
         450      2.77995     0.866188  0.000678929 -4.03268e-05 
         450      2.82098     0.872845  0.000690774 -4.03065e-05 
         450      2.86232     0.879314  0.000702454 -4.02857e-05 
         450      2.90395     0.885592  0.000713954 -4.02644e-05 
         450      2.94588     0.891677  0.000725261 -4.02424e-05 
         450      2.98812     0.897567  0.000736364 -4.02201e-05 
         450      3.03065     0.903261   0.00074725 -4.01972e-05 
         450      3.07349     0.908757  0.000757906 -4.01741e-05 
         450      3.11662     0.914056  0.000768323 -4.01507e-05 
         450      3.16006     0.919157   0.00077849 -4.01272e-05 
         450       3.2038      0.92406  0.000788398 -4.01036e-05 
         450      3.24783     0.928765  0.000798038 -4.00801e-05 
         450      3.29217     0.933275  0.000807404 -4.00566e-05 
         450      3.33681     0.937589  0.000816488 -4.00333e-05 
         450      3.38175     0.941712  0.000825284   -4.001e-05 
         450      3.42699     0.945643  0.000833788 -3.99867e-05 
         450      3.47253     0.949387  0.000841996 -3.99631e-05 
         450      3.51838     0.952946  0.000849905 -3.99387e-05 
         450      3.56452     0.956324  0.000857512 -3.99131e-05 
         450      3.61096     0.959525  0.000864815 -3.98853e-05 
         450       3.6577     0.962551  0.000871812 -3.98542e-05 
         450      3.70475     0.965409  0.000878503 -3.98183e-05 
         450      3.75209     0.968102  0.000884884 -3.97765e-05 
         450      3.79974     0.970635  0.000890953  -3.9751e-05 
         450      3.84768     0.973013  0.000896725 -3.97257e-05 
         450      3.89593     0.975242  0.000902202 -3.97007e-05 
         450      3.94448     0.977327  0.000907388 -3.96757e-05 
         450      3.99332     0.979273  0.000912288 -3.96508e-05 
         450      4.04247     0.981086  0.000916907 -3.96258e-05 
         450      4.09192     0.982771  0.000921258 -3.95983e-05 
         450      4.14167     0.984335  0.000925355 -3.95644e-05 
         450      4.19172     0.985784  0.000929191 -3.95321e-05 
         450      4.24207     0.987122  0.000932776 -3.95009e-05 
         450      4.29272     0.988356   0.00093612 -3.94704e-05 
         450      4.34367     0.989491  0.000939234 -3.94404e-05 
         450      4.39493     0.990533  0.000942127 -3.94104e-05 
         450      4.44648     0.991487  0.000944809 -3.93803e-05 
         450      4.49833      0.99236   0.00094729   -3.935e-05 
         450      4.55049     0.993155   0.00094958 -3.93192e-05 
         450      4.60294     0.993879  0.000951688 -3.92881e-05 
         450       4.6557     0.994535  0.000953624 -3.92564e-05 
         450      4.70875      0.99513  0.000955398 -3.92242e-05 
         450      4.76211     0.995667  0.000957018 -3.91915e-05 
         450      4.81577     0.996151  0.000958495 -3.91583e-05 
         450      4.86972     0.996586  0.000959838 -3.91247e-05 
         450      4.92398     0.996976  0.000961055 -3.90907e-05 
         450      4.97854     0.997325  0.000962155 -3.90564e-05 
         450       5.0334     0.997636  0.000963146 -3.90217e-05 
         450      5.08856     0.997912  0.000964038 -3.89869e-05 
         450      5.14402     0.998158  0.000964838 -3.89517e-05 
         450      5.19978     0.998375  0.000965553 -3.89165e-05 
         450      5.25584     0.998567  0.000966192 -3.88811e-05 
         450      5.31221     0.998736   0.00096676 -3.88455e-05 
         450      5.36887     0.998884  0.000967264 -3.88099e-05 
         450      5.42584     0.999014  0.000967711 -3.87741e-05 
         450       5.4831     0.999128  0.000968106 -3.87383e-05 
         450      5.54066     0.999226  0.000968454 -3.87023e-05 
         450      5.59853     0.999312  0.000968761 -3.86662e-05 
         450       5.6567     0.999386  0.000969031   -3.863e-05 
         450      5.71516      0.99945  0.000969267 -3.85937e-05 
         450      5.77393     0.999505  0.000969474 -3.85573e-05 
         450        5.833     0.999552  0.000969655 -3.85207e-05 
         450      5.89237     0.999593  0.000969812 -3.84839e-05 
         450      5.95204     0.999627  0.000969948  -3.8447e-05 
         450      6.01201     0.999657  0.000970066   -3.841e-05 
         450      6.07228     0.999681  0.000970168 -3.83728e-05 
         450      6.13285     0.999702  0.000970254 -3.83356e-05 
         450      6.19372      0.99972  0.000970329 -3.82982e-05 
         450      6.25489     0.999735  0.000970392 -3.82607e-05 
         450      6.31636     0.999747  0.000970445 -3.82231e-05 
         450      6.37814     0.999758   0.00097049 -3.81854e-05 
         450      6.44021     0.999767  0.000970528 -3.81474e-05 
         450      6.50258     0.999774  0.000970561 -3.81091e-05 
         450      6.56526      0.99978  0.000970591 -3.80702e-05 
         450      6.62824     0.999785  0.000970617 -3.80304e-05 
         450      6.69151     0.999789  0.000970642 -3.79893e-05 
         450      6.75509     0.999792  0.000970662 -3.79502e-05 
         450      6.81897     0.999795  0.000970673 -3.79133e-05 
         450      6.88314     0.999798  0.000970682 -3.78748e-05 
         450      6.94762     0.999799   0.00097069 -3.78351e-05 
         450       7.0124     0.999801  0.000970698 -3.77941e-05 
         450      7.07748     0.999802  0.000970708 -3.77522e-05 
         450      7.14286     0.999803  0.000970717 -3.77093e-05 
         450      7.20854     0.999804  0.000970727 -3.76659e-05 
         450      7.27453     0.999805  0.000970737  -3.7622e-05 
         450      7.34081     0.999805  0.000970747 -3.75781e-05 
         450      7.40739     0.999806  0.000970757 -3.75344e-05 
         450      7.47428     0.999806  0.000970765 -3.74913e-05 
         450      7.54146     0.999807  0.000970772 -3.74492e-05 
         450      7.60895     0.999807  0.000970779 -3.74081e-05 
         450      7.67673     0.999808  0.000970784 -3.73681e-05 
         450      7.74482     0.999808  0.000970789 -3.73289e-05 
         450       7.8132     0.999808  0.000970793 -3.72898e-05 
         450      7.88189     0.999809  0.000970797 -3.72496e-05 
         450      7.95088     0.999809  0.000970801 -3.72065e-05 
         450      8.02017     0.999809  0.000970804 -3.71575e-05 
         450      8.08976     0.999809  0.000970807 -3.71056e-05 
         450      8.15964     0.999809  0.000970813 -3.70692e-05 
         450      8.22983      0.99981  0.000970818   -3.703e-05 
         450      8.30033      0.99981  0.000970824 -3.69886e-05 
         450      8.37112      0.99981  0.000970829 -3.69457e-05 
         450      8.44221      0.99981  0.000970834 -3.69016e-05 
         450       8.5136      0.99981  0.000970838 -3.68567e-05 
         450      8.58529     0.999811  0.000970841 -3.68112e-05 
         450      8.65729     0.999811  0.000970844 -3.67653e-05 
         450      8.72958     0.999811  0.000970847 -3.67192e-05 
         450      8.80218     0.999811  0.000970851  -3.6673e-05 
         450      8.87507     0.999812  0.000970855 -3.66268e-05 
         450      8.94827     0.999812  0.000970861 -3.65805e-05 
         450      9.02177     0.999812  0.000970867 -3.65343e-05 
         450      9.09556     0.999812  0.000970873  -3.6488e-05 
         450      9.16966     0.999812  0.000970881 -3.64418e-05 
         450      9.24406     0.999813  0.000970889 -3.63955e-05 
         450      9.31876     0.999813  0.000970898 -3.63492e-05 
         450      9.39376     0.999813  0.000970907 -3.63027e-05 
         450      9.46906     0.999813  0.000970916 -3.62562e-05 
         450      9.54466     0.999814  0.000970924 -3.62096e-05 
         450      9.62056     0.999814  0.000970932 -3.61628e-05 
         450      9.69676     0.999814  0.000970939 -3.61158e-05 
         450      9.77327     0.999814  0.000970945 -3.60686e-05 
         450      9.85007     0.999814   0.00097095 -3.60212e-05 
         450      9.92717     0.999815  0.000970955 -3.59736e-05 
         450      10.0046     0.999815  0.000970958 -3.59258e-05 
         450      10.0823     0.999815  0.000970961 -3.58777e-05 
         450      10.1603     0.999815  0.000970964 -3.58294e-05 
         450      10.2386     0.999816  0.000970967 -3.57808e-05 
         450      10.3172     0.999816  0.000970971 -3.57319e-05 
         450      10.3961     0.999816  0.000970976 -3.56827e-05 
         450      10.4753     0.999816  0.000970982 -3.56333e-05 
         450      10.5548     0.999817   0.00097099 -3.55837e-05 
         450      10.6346     0.999817     0.000971 -3.55339e-05 
         450      10.7147     0.999817   0.00097101 -3.54839e-05 
         450      10.7952     0.999817  0.000971021  -3.5434e-05 
         450      10.8759     0.999818  0.000971031 -3.53843e-05 
         450      10.9569     0.999818  0.000971037  -3.5335e-05 
         450      11.0382     0.999818  0.000971044 -3.52846e-05 
         450      11.1198     0.999818  0.000971054 -3.52329e-05 
         450      11.2017     0.999819  0.000971065 -3.51807e-05 
         450      11.2839     0.999819  0.000971074 -3.51285e-05 
         450      11.3664     0.999819  0.000971082 -3.50767e-05 
         450      11.4493     0.999819  0.000971087 -3.50255e-05 
         450      11.5324     0.999819  0.000971089 -3.49749e-05 
         450      11.6158      0.99982  0.000971089 -3.49249e-05 
         450      11.6995      0.99982  0.000971088 -3.48751e-05 
         450      11.7835      0.99982  0.000971088 -3.48253e-05 
         450      11.8679      0.99982   0.00097109 -3.47751e-05 
         450      11.9525     0.999821  0.000971095 -3.47242e-05 
         450      12.0374     0.999821  0.000971102 -3.46723e-05 
         450      12.1226     0.999821  0.000971108 -3.46191e-05 
         450      12.2081     0.999821  0.000971106 -3.45648e-05 
         450       12.294     0.999821    0.0009711 -3.45097e-05 
         450      12.3801     0.999822  0.000971123 -3.44554e-05 
         450      12.4665     0.999822  0.000971137 -3.44011e-05 
         450      12.5532     0.999823  0.000971146 -3.43468e-05 
         450      12.6402     0.999823  0.000971153 -3.42923e-05 
         450      12.7276     0.999823  0.000971158 -3.42374e-05 
         450      12.8152     0.999823  0.000971163 -3.41823e-05 
         450      12.9031     0.999824  0.000971168 -3.41268e-05 
         450      12.9913     0.999824  0.000971173  -3.4071e-05 
         450      13.0799     0.999824  0.000971179 -3.40149e-05 
         450      13.1687     0.999824  0.000971185 -3.39585e-05 
         450      13.2578     0.999825   0.00097119 -3.39019e-05 
         450      13.3473     0.999825  0.000971196 -3.38452e-05 
         450       13.437     0.999825  0.000971201 -3.37883e-05 
         450       13.527     0.999825  0.000971205 -3.37314e-05 
         450      13.6173     0.999826  0.000971209 -3.36745e-05 
         450       13.708     0.999826  0.000971213 -3.36175e-05 
         450      13.7989     0.999826  0.000971217 -3.35607e-05 
         450      13.8901     0.999826  0.000971221 -3.35039e-05 
         450      13.9817     0.999827  0.000971225 -3.34471e-05 
         450      14.0735     0.999827   0.00097123 -3.33905e-05 
         450      14.1656     0.999827  0.000971236 -3.33338e-05 
         450      14.2581     0.999827  0.000971242 -3.32772e-05 
         450      14.3508     0.999828   0.00097125 -3.32207e-05 
         450      14.4438     0.999828  0.000971259  -3.3164e-05 
         450      14.5372     0.999828   0.00097127 -3.31073e-05 
         450      14.6308     0.999829  0.000971281 -3.30504e-05 
         450      14.7248     0.999829  0.000971293 -3.29934e-05 
         450       14.819     0.999829  0.000971306 -3.29361e-05 
         450      14.9135     0.999829  0.000971319 -3.28785e-05 
         450      15.0084      0.99983  0.000971331 -3.28206e-05 
         450      15.1035      0.99983  0.000971343 -3.27622e-05 
         450       15.199      0.99983  0.000971354 -3.27035e-05 
         450      15.2947     0.999831  0.000971363 -3.26442e-05 
         450      15.3907     0.999831   0.00097137 -3.25846e-05 
         450      15.4871     0.999831  0.000971375 -3.25244e-05 
         450      15.5837     0.999832  0.000971379 -3.24637e-05 
         450      15.6807     0.999832   0.00097138 -3.24026e-05 
         450      15.7779     0.999832   0.00097138  -3.2341e-05 
         450      15.8755     0.999832  0.000971379 -3.22789e-05 
         450      15.9733     0.999833  0.000971378 -3.22164e-05 
         450      16.0714     0.999833  0.000971378 -3.21535e-05 
         450      16.1699     0.999833  0.000971379 -3.20902e-05 
         450      16.2686     0.999833  0.000971383 -3.20265e-05 
         450      16.3677     0.999834  0.000971388 -3.19623e-05 
         450       16.467     0.999834  0.000971396 -3.18975e-05 
         450      16.5667     0.999834  0.000971405  -3.1832e-05 
         450      16.6666     0.999834  0.000971413 -3.17658e-05 
         450      16.7669     0.999835  0.000971453 -3.17024e-05 
         450      16.8674     0.999835  0.000971479 -3.16358e-05 
         450      16.9683     0.999836  0.000971491 -3.15662e-05 
         450      17.0694     0.999836  0.000971493 -3.14937e-05 
         450      17.1709     0.999836  0.000971495 -3.14189e-05 
         450      17.2726     0.999837  0.000971515 -3.13429e-05 
         450      17.3747     0.999837   0.00097158 -3.12674e-05 
         450      17.4771     0.999837  0.000971709 -3.11973e-05 
         450      17.5797     0.999838  0.000971328 -3.12277e-05 
         450      17.6827     0.999838  0.000971154 -3.12607e-05 
         450      17.7859     0.999838  0.000971222 -3.12428e-05 
         450      17.8895     0.999839  0.000971418 -3.11232e-05 
         450      17.9933     0.999839  0.000971524 -3.10188e-05 
         450      18.0975     0.999839  0.000971571 -3.09263e-05 
         450      18.2019     0.999839  0.000971582 -3.08428e-05 
         450      18.3067      0.99984  0.000971573 -3.07659e-05 
         450      18.4118      0.99984  0.000971557 -3.06938e-05 
         450      18.5171      0.99984   0.00097154 -3.06247e-05 
         450      18.6228     0.999841  0.000971529 -3.05575e-05 
         450      18.7288     0.999841  0.000971524 -3.04911e-05 
         450       18.835     0.999841  0.000971528  -3.0425e-05 
         450      18.9416     0.999841  0.000971538 -3.03585e-05 
         450      19.0484     0.999842  0.000971554 -3.02914e-05 
         450      19.1556     0.999842  0.000971573 -3.02235e-05 
         450      19.2631     0.999842  0.000971594 -3.01548e-05 
         450      19.3708     0.999843  0.000971614 -3.00854e-05 
         450      19.4789     0.999843  0.000971631 -3.00154e-05 
         450      19.5873     0.999843  0.000971645  -2.9945e-05 
         450      19.6959     0.999844  0.000971655 -2.98743e-05 
         450      19.8049     0.999844  0.000971659 -2.98037e-05 
         450      19.9142     0.999844  0.000971659 -2.97333e-05 
         450      20.0237     0.999845  0.000971655 -2.96633e-05 
         450      20.1336     0.999845  0.000971648 -2.95939e-05 
         450      20.2438     0.999845   0.00097164 -2.95251e-05 
         450      20.3542     0.999846  0.000971631  -2.9457e-05 
         450       20.465     0.999846  0.000971624 -2.93896e-05 
         450      20.5761     0.999846   0.00097162 -2.93229e-05 
         450      20.6875     0.999847   0.00097162 -2.92568e-05 
         450      20.7991     0.999847  0.000971626 -2.91911e-05 
         450      20.9111     0.999847  0.000971637 -2.91257e-05 
         450      21.0234     0.999848  0.000971655 -2.90602e-05 
         450       21.136     0.999848  0.000971679 -2.89945e-05 
         450      21.2488     0.999848  0.000971708 -2.89283e-05 
         450       21.362     0.999849   0.00097174 -2.88613e-05 
         450      21.4755     0.999849  0.000971775 -2.87933e-05 
         450      21.5893     0.999849   0.00097181 -2.87239e-05 
         450      21.7033      0.99985  0.000971842 -2.86532e-05 
         450      21.8177      0.99985  0.000971869 -2.85809e-05 
         450      21.9324      0.99985  0.000971889  -2.8507e-05 
         450      22.0474     0.999851  0.000971899 -2.84318e-05 
         450      22.1627     0.999851  0.000971899 -2.83553e-05 
         450      22.2782     0.999851  0.000971888 -2.82782e-05 
         450      22.3941     0.999852  0.000971867 -2.82009e-05 
         450      22.5103     0.999852  0.000971839 -2.81243e-05 
         450      22.6268     0.999852   0.00097181 -2.80495e-05 
         450      22.7436     0.999853  0.000971788 -2.79779e-05 
         450      22.8607     0.999853  0.000971783  -2.7911e-05 
         450       22.978     0.999853  0.000971811 -2.78509e-05 
         450      23.0957     0.999854  0.000971892 -2.77998e-05 
         450      23.2137     0.999854  0.000971871 -2.77222e-05 
         450       23.332     0.999855  0.000971831 -2.76336e-05 
         450      23.4506     0.999855  0.000971827  -2.7548e-05 
         450      23.5695     0.999855  0.000971844 -2.74638e-05 
         450      23.6887     0.999856  0.000971871   -2.738e-05 
         450      23.8081     0.999856  0.000971901 -2.72958e-05 
         450      23.9279     0.999856  0.000971927  -2.7211e-05 
         450       24.048     0.999857  0.000971946 -2.71255e-05 
         450      24.1684     0.999857  0.000971959 -2.70396e-05 
         450      24.2891     0.999857  0.000971964 -2.69538e-05 
         450      24.4101     0.999858  0.000971963 -2.68687e-05 
         450      24.5314     0.999858  0.000971956 -2.67852e-05 
         450       24.653     0.999859  0.000971947 -2.67041e-05 
         450      24.7749     0.999859  0.000971936 -2.66262e-05 
         450      24.8971     0.999859  0.000971925 -2.65522e-05 
         450      25.0196      0.99986  0.000971915 -2.64825e-05 
         450      25.1424      0.99986  0.000971908 -2.64174e-05 
         450      25.2655      0.99986  0.000971904 -2.63565e-05 
         450      25.3889     0.999861  0.000971903  -2.6299e-05 
         450      25.5125     0.999861  0.000971905 -2.62435e-05 
         450      25.6365     0.999861  0.000971911 -2.61877e-05 
         450      25.7608     0.999862  0.000971922 -2.61285e-05 
         450      25.8854     0.999862  0.000971939 -2.60616e-05 
         450      26.0103     0.999862  0.000971966 -2.59816e-05 
         450      26.1355     0.999863  0.000972007 -2.58818e-05 
         450       26.261     0.999863   0.00097207 -2.57538e-05 
         450      26.3868     0.999863  0.000972165 -2.55876e-05 
         450      26.5129     0.999864   0.00097212 -2.55689e-05 
         450      26.6393     0.999864  0.000972053 -2.55556e-05 
         450      26.7661     0.999865  0.000972004 -2.55134e-05 
         450      26.8931     0.999865  0.000971971 -2.54499e-05 
         450      27.0204     0.999866  0.000971954 -2.53715e-05 
         450       27.148     0.999866  0.000971952 -2.52833e-05 
         450      27.2759     0.999867  0.000971965 -2.51895e-05 
         450      27.4041     0.999867  0.000971992 -2.50935e-05 
         450      27.5326     0.999867   0.00097203 -2.49976e-05 
         450      27.6614     0.999868  0.000972078 -2.49035e-05 
         450      27.7905     0.999868  0.000972134 -2.48123e-05 
         450      27.9199     0.999868  0.000972191 -2.47245e-05 
         450      28.0496     0.999869  0.000972246 -2.46401e-05 
         450      28.1796     0.999869  0.000972292 -2.45587e-05 
         450      28.3099     0.999869  0.000972322 -2.44798e-05 
         450      28.4405     0.999869  0.000972329 -2.44028e-05 
         450      28.5715      0.99987  0.000972309 -2.43269e-05 
         450      28.7027      0.99987  0.000972261 -2.42515e-05 
         450      28.8342     0.999871  0.000972188 -2.41763e-05 
         450       28.966     0.999871  0.000972104 -2.41012e-05 
         450      29.0981     0.999872  0.000972035 -2.40267e-05 
         450      29.2305     0.999872  0.000972028 -2.39539e-05 
         450      29.3632     0.999872  0.000972151 -2.38846e-05 
         450      29.4963     0.999873  0.000972445  -2.3818e-05 
         450      29.6296     0.999874  0.000972147 -2.37027e-05 
         450      29.7632     0.999874  0.000972112   -2.359e-05 
         450      29.8971     0.999874  0.000972198 -2.34808e-05 
         450      30.0313     0.999875  0.000972313 -2.33758e-05 
         450      30.1658     0.999875  0.000972409 -2.32755e-05 
         450      30.3007     0.999875  0.000972462 -2.31805e-05 
         450      30.4358     0.999876   0.00097247 -2.30908e-05 
         450      30.5712     0.999876   0.00097244 -2.30063e-05 
         450      30.7069     0.999876  0.000972383 -2.29265e-05 