Variables = x, y, u, v, p

Zone, I=400, F=POINT
         200            0            0            0 -2.55082e-05 
         200     0.000471  0.000213518  4.73486e-11  -2.5508e-05 
         200     0.001884  0.000854072  7.57578e-10 -2.55074e-05 
         200     0.004239   0.00192166  3.83525e-09 -2.55064e-05 
         200     0.007537   0.00341674  1.21245e-08  -2.5505e-05 
         200     0.011776   0.00533841  2.95982e-08 -2.55032e-05 
         200     0.016958   0.00768757  6.13791e-08  -2.5501e-05 
         200     0.023081    0.0104633  1.13706e-07 -2.54984e-05 
         200      0.03015    0.0136679  1.94022e-07 -2.54953e-05 
         200     0.038157    0.0172977  3.10761e-07 -2.54919e-05 
         200     0.047107     0.021355  4.73645e-07 -2.54881e-05 
         200     0.056999    0.0258394  6.93456e-07 -2.54839e-05 
         200     0.067837    0.0307525  9.82246e-07 -2.54792e-05 
         200     0.079614    0.0360913  1.35291e-06 -2.54742e-05 
         200     0.092332    0.0418566  1.81968e-06 -2.54688e-05 
         200     0.105992    0.0480487  2.39793e-06  -2.5463e-05 
         200       0.1206    0.0546704  3.10444e-06 -2.54567e-05 
         200     0.136145    0.0617165   3.9563e-06 -2.54501e-05 
         200     0.152631    0.0691887  4.97238e-06  -2.5443e-05 
         200     0.170067    0.0770908  6.17317e-06 -2.54356e-05 
         200     0.188438    0.0854157  7.57861e-06 -2.54277e-05 
         200     0.207751    0.0941663  9.21122e-06 -2.54195e-05 
         200     0.228006     0.103342  1.10942e-05 -2.54108e-05 
         200     0.249212     0.112947  1.32526e-05 -2.54017e-05 
         200     0.271351     0.122971  1.57101e-05 -2.53922e-05 
         200     0.294433     0.133418  1.84938e-05 -2.53823e-05 
         200     0.318456     0.144287  2.16309e-05  -2.5372e-05 
         200     0.343432      0.15558  2.51514e-05 -2.53613e-05 
         200     0.369339     0.167288  2.90814e-05 -2.53501e-05 
         200     0.396189     0.179412  3.34526e-05 -2.53386e-05 
         200     0.423981      0.19195  3.82956e-05 -2.53266e-05 
         200     0.452726     0.204904  4.36442e-05 -2.53141e-05 
         200     0.482403     0.218261  4.95266e-05 -2.53012e-05 
         200     0.513021     0.232021  5.59772e-05 -2.52879e-05 
         200     0.544594     0.246185  6.30319e-05 -2.52741e-05 
         200     0.577096     0.260737  7.07185e-05 -2.52598e-05 
         200     0.610541     0.275676  7.90731e-05  -2.5245e-05 
         200     0.644927     0.290994  8.81284e-05 -2.52297e-05 
         200      0.68027      0.30669  9.79218e-05 -2.52139e-05 
         200     0.716541     0.322741  0.000108477 -2.51976e-05 
         200     0.753754     0.339143   0.00011983 -2.51806e-05 
         200     0.791909     0.355884   0.00013201 -2.51631e-05 
         200     0.831022     0.372957   0.00014505  -2.5145e-05 
         200     0.871061     0.390333  0.000158968 -2.51262e-05 
         200     0.912043     0.408003  0.000173791 -2.51067e-05 
         200     0.953966     0.425947  0.000189542 -2.50865e-05 
         200     0.996849     0.444152  0.000206244 -2.50656e-05 
         200      1.04066     0.462581  0.000223899 -2.50438e-05 
         200      1.08541     0.481217  0.000242524 -2.50212e-05 
         200      1.13112      0.50004   0.00026213 -2.49976e-05 
         200      1.17775     0.519007  0.000282702  -2.4973e-05 
         200      1.22533     0.538092  0.000304241 -2.49474e-05 
         200      1.27384     0.557263  0.000326733 -2.49208e-05 
         200      1.32333     0.576492  0.000350169 -2.48929e-05 
         200      1.37373     0.595724  0.000374502 -2.48638e-05 
         200      1.42507     0.614928  0.000399704 -2.48333e-05 
         200      1.47736     0.634062  0.000425733 -2.48015e-05 
         200      1.53061     0.653088  0.000452547 -2.47682e-05 
         200      1.58478     0.671947  0.000480061 -2.47333e-05 
         200      1.63989     0.690599  0.000508216 -2.46968e-05 
         200      1.69595     0.708996  0.000536932 -2.46585e-05 
         200      1.75297     0.727099  0.000566132 -2.46184e-05 
         200      1.81091     0.744843  0.000595698 -2.45764e-05 
         200      1.86979     0.762189  0.000625535 -2.45326e-05 
         200      1.92964     0.779096  0.000655544 -2.44866e-05 
         200       1.9904     0.795504  0.000685583 -2.44387e-05 
         200      2.05211     0.811376  0.000715539 -2.43886e-05 
         200      2.11476     0.826672  0.000745287 -2.43363e-05 
         200      2.17838     0.841358  0.000774708 -2.42817e-05 
         200      2.24291     0.855389  0.000803649 -2.42249e-05 
         200      2.30839     0.868741  0.000831993 -2.41658e-05 
         200       2.3748     0.881389  0.000859617 -2.41044e-05 
         200      2.44219     0.893317  0.000886409 -2.40406e-05 
         200      2.51049     0.904501  0.000912235 -2.39745e-05 
         200      2.57974     0.914938  0.000937004 -2.39061e-05 
         200      2.64993     0.924625  0.000960621 -2.38355e-05 
         200      2.72108     0.933569  0.000983015 -2.37626e-05 
         200      2.79315     0.941773    0.0010041 -2.36876e-05 
         200      2.86617     0.949255   0.00102384 -2.36104e-05 
         200      2.94012     0.956036   0.00104219 -2.35312e-05 
         200      3.01505     0.962146   0.00105915   -2.345e-05 
         200      3.09089     0.967608    0.0010747 -2.33668e-05 
         200      3.16767     0.972461   0.00108886 -2.32818e-05 
         200      3.24542     0.976744   0.00110166 -2.31948e-05 
         200      3.32409     0.980493   0.00111314 -2.31061e-05 
         200       3.4037     0.983751   0.00112336 -2.30156e-05 
         200      3.48425     0.986561   0.00113238 -2.29235e-05 
         200      3.56577     0.988965   0.00114028 -2.28299e-05 
         200       3.6482     0.991004   0.00114714 -2.27351e-05 
         200      3.73158      0.99272   0.00115304 -2.26393e-05 
         200       3.8159     0.994151   0.00115807 -2.25413e-05 
         200      3.90119     0.995334   0.00116233 -2.24418e-05 
         200       3.9874     0.996304    0.0011659 -2.23409e-05 
         200      4.07454      0.99709   0.00116886 -2.22387e-05 
         200      4.16263     0.997723   0.00117129 -2.21353e-05 
         200      4.25169     0.998226   0.00117327 -2.20307e-05 
         200      4.34166     0.998623   0.00117486 -2.19252e-05 
         200      4.43258     0.998933   0.00117613 -2.18185e-05 
         200      4.52447     0.999172   0.00117713 -2.17108e-05 
         200      4.61726     0.999354   0.00117791  -2.1602e-05 
         200        4.711     0.999492   0.00117852  -2.1492e-05 
         200      4.80569     0.999596   0.00117898 -2.13807e-05 
         200      4.90135     0.999672   0.00117933 -2.12677e-05 
         200      4.99791     0.999728   0.00117959 -2.11528e-05 
         200      5.09542     0.999768   0.00117979 -2.10371e-05 
         200      5.19387     0.999797   0.00117993 -2.09207e-05 
         200       5.2933     0.999817   0.00118003 -2.08033e-05 
         200      5.39364     0.999831    0.0011801 -2.06868e-05 
         200      5.49491     0.999841   0.00118016 -2.05692e-05 
         200      5.59713     0.999848   0.00118021 -2.04481e-05 
         200      5.70033     0.999853   0.00118024 -2.03271e-05 
         200      5.80443     0.999856   0.00118025 -2.02049e-05 
         200      5.90948     0.999858   0.00118026 -2.00807e-05 
         200      6.01551      0.99986   0.00118028 -1.99546e-05 
         200      6.12244     0.999861   0.00118029 -1.98277e-05 
         200      6.23031     0.999862   0.00118031 -1.97009e-05 
         200      6.33912     0.999863   0.00118032 -1.95742e-05 
         200      6.44892     0.999863   0.00118032 -1.94463e-05 
         200      6.55962     0.999864   0.00118032 -1.93155e-05 
         200      6.67126     0.999864   0.00118034 -1.91821e-05 
         200      6.78384     0.999865   0.00118033 -1.90536e-05 
         200      6.89741     0.999865   0.00118035 -1.89155e-05 
         200      7.01187     0.999866   0.00118035 -1.87842e-05 
         200      7.12728     0.999866   0.00118035 -1.86495e-05 
         200      7.24363     0.999867   0.00118036 -1.85097e-05 
         200      7.36097     0.999867   0.00118036 -1.83676e-05 
         200       7.4792     0.999867   0.00118039 -1.82265e-05 
         200      7.59838     0.999868   0.00118038 -1.80868e-05 
         200      7.71854     0.999868   0.00118039 -1.79461e-05 
         200       7.8396     0.999869   0.00118039 -1.78039e-05 
         200      7.96161     0.999869    0.0011804 -1.76604e-05 
         200      8.08455      0.99987   0.00118041  -1.7516e-05 
         200      8.20849      0.99987   0.00118042 -1.73708e-05 
         200      8.33332     0.999871   0.00118042 -1.72246e-05 
         200      8.45909     0.999871   0.00118043 -1.70764e-05 
         200       8.5858     0.999872   0.00118044 -1.69262e-05 
         200      8.71351     0.999872   0.00118044 -1.67752e-05 
         200       8.8421     0.999873   0.00118043 -1.66284e-05 
         200      8.97164     0.999873   0.00118046 -1.64683e-05 
         200      9.10212     0.999874   0.00118046  -1.6314e-05 
         200       9.2336     0.999874   0.00118048 -1.61661e-05 
         200      9.36596     0.999875   0.00118046 -1.60033e-05 
         200      9.49927     0.999876   0.00118048 -1.58469e-05 
         200      9.63352     0.999876    0.0011805 -1.56896e-05 
         200      9.76877     0.999877   0.00118049 -1.55294e-05 
         200       9.9049     0.999877   0.00118048 -1.53668e-05 
         200       10.042     0.999878   0.00118049 -1.52029e-05 
         200      10.1801     0.999878   0.00118051 -1.50386e-05 
         200       10.319     0.999879   0.00118052 -1.48743e-05 
         200      10.4589      0.99988   0.00118052 -1.47099e-05 
         200      10.5998      0.99988   0.00118052 -1.45452e-05 
         200      10.7416     0.999881   0.00118055 -1.43795e-05 
         200      10.8843     0.999881   0.00118054   -1.421e-05 
         200       11.028     0.999882   0.00118056 -1.40406e-05 
         200      11.1726     0.999883   0.00118054 -1.38714e-05 
         200      11.3182     0.999883   0.00118054    -1.37e-05 
         200      11.4647     0.999884   0.00118055 -1.35259e-05 
         200      11.6122     0.999885   0.00118056 -1.33496e-05 
         200      11.7605     0.999885   0.00118057 -1.31721e-05 
         200      11.9099     0.999886   0.00118058 -1.29941e-05 
         200      12.0602     0.999887   0.00118058 -1.28163e-05 
         200      12.2114     0.999887   0.00118058 -1.26387e-05 
         200      12.3636     0.999888   0.00118058 -1.24609e-05 
         200      12.5167     0.999889   0.00118059 -1.22824e-05 
         200      12.6707     0.999889    0.0011806 -1.21023e-05 
         200      12.8257      0.99989   0.00118061 -1.19202e-05 
         200      12.9817     0.999891    0.0011806 -1.17357e-05 
         200      13.1386     0.999891    0.0011806 -1.15493e-05 
         200      13.2964     0.999892   0.00118061 -1.13597e-05 
         200      13.4551     0.999893    0.0011806 -1.11649e-05 
         200      13.6149     0.999893   0.00118061 -1.09717e-05 
         200      13.7755     0.999894    0.0011806 -1.07835e-05 
         200      13.9371     0.999895   0.00118062 -1.05958e-05 
         200      14.0996     0.999896   0.00118063 -1.04028e-05 
         200      14.2631     0.999896   0.00118064 -1.02075e-05 
         200      14.4275     0.999897   0.00118065 -1.00233e-05 
         200      14.5928     0.999898   0.00118065 -9.83048e-06 
         200      14.7592     0.999898   0.00118065 -9.63255e-06 
         200      14.9264     0.999899   0.00118065 -9.43202e-06 
         200      15.0946       0.9999   0.00118067 -9.23038e-06 
         200      15.2637     0.999901   0.00118068 -9.02857e-06 
         200      15.4338     0.999901   0.00118069 -8.82688e-06 
         200      15.6048     0.999902   0.00118068 -8.62536e-06 
         200      15.7767     0.999903   0.00118067 -8.42326e-06 
         200      15.9496     0.999904   0.00118066 -8.21948e-06 
         200      16.1235     0.999904   0.00118065 -8.01253e-06 
         200      16.2982     0.999905   0.00118065 -7.80136e-06 
         200      16.4739     0.999906   0.00118065 -7.58548e-06 
         200      16.6506     0.999907   0.00118064 -7.36652e-06 
         200      16.8282     0.999908   0.00118065  -7.1497e-06 
         200      17.0068     0.999908   0.00118066 -6.93842e-06 
         200      17.1862     0.999909   0.00118066 -6.73081e-06 
         200      17.3667      0.99991   0.00118068 -6.52359e-06 
         200      17.5481     0.999911   0.00118069 -6.31267e-06 
         200      17.7304     0.999912    0.0011807 -6.09772e-06 
         200      17.9136     0.999912    0.0011807 -5.88023e-06 
         200      18.0979     0.999913   0.00118069 -5.66187e-06 
         200       18.283     0.999914   0.00118069 -5.44384e-06 
         200      18.4691     0.999915   0.00118069 -5.22595e-06 
         200      18.6561     0.999916   0.00118069 -5.00708e-06 
         200      18.8441     0.999917   0.00118069 -4.78545e-06 
         200       19.033     0.999918   0.00118069 -4.55967e-06 
         200      19.2228     0.999918    0.0011807 -4.32906e-06 
         200      19.4136     0.999919   0.00118071 -4.09492e-06 
         200      19.6054      0.99992   0.00118071 -3.86092e-06 
         200       19.798     0.999921   0.00118071 -3.63381e-06 
         200      19.9917     0.999922   0.00118069 -3.42253e-06 
         200      20.1862     0.999923   0.00118068 -3.20398e-06 
         200      20.3818     0.999924   0.00118071 -2.95211e-06 
         200      20.5782     0.999925   0.00118071 -2.70657e-06 
         200      20.7756     0.999926   0.00118048 -2.48215e-06 
         200       20.974     0.999927   0.00118069 -2.27299e-06 
         200      21.1732     0.999927   0.00118064 -1.97945e-06 
         200      21.3734     0.999928   0.00118063 -1.71217e-06 
         200      21.5745     0.999929   0.00118069 -1.54651e-06 
         200      21.7767      0.99993   0.00118068  -1.3357e-06 
         200      21.9797     0.999931   0.00118064 -1.09746e-06 
         200      22.1837     0.999932   0.00118062 -8.44776e-07 
         200      22.3886     0.999933   0.00118063 -5.86846e-07 
         200      22.5945     0.999934   0.00118066   -3.296e-07 
         200      22.8013     0.999935   0.00118069 -7.66543e-08 
         200      23.0091     0.999936   0.00118071  1.70781e-07 
         200      23.2177     0.999936   0.00118071  4.13009e-07 
         200      23.4274     0.999937   0.00118069  6.51603e-07 
         200       23.638     0.999938   0.00118065   8.8861e-07 
         200      23.8495     0.999939   0.00118061  1.12673e-06 
         200       24.062      0.99994   0.00118059  1.36861e-06 
         200      24.2754     0.999941   0.00118058  1.61618e-06 
         200      24.4897     0.999942   0.00118057  1.87074e-06 
         200       24.705     0.999943   0.00118056  2.13215e-06 
         200      24.9213     0.999944   0.00118052   2.3984e-06 
         200      25.1385     0.999945   0.00118049  2.66458e-06 
         200      25.3566     0.999946   0.00118062  2.92273e-06 
         200      25.5756     0.999947   0.00118052  3.17298e-06 
         200      25.7957     0.999948   0.00118054  3.42171e-06 
         200      26.0166     0.999949   0.00118059  3.67297e-06 
         200      26.2385      0.99995   0.00118061  3.92962e-06 
         200      26.4613     0.999951   0.00118061  4.19303e-06 
         200      26.6851     0.999952   0.00118058  4.46342e-06 
         200      26.9098     0.999953   0.00118055  4.73973e-06 
         200      27.1354     0.999954   0.00118052  5.02042e-06 
         200      27.3621     0.999955    0.0011805  5.30347e-06 
         200      27.5896     0.999956   0.00118048  5.58625e-06 
         200      27.8181     0.999957   0.00118048  5.86649e-06 
         200      28.0475     0.999958   0.00118048  6.14215e-06 
         200      28.2779     0.999959   0.00118047  6.41187e-06 
         200      28.5092      0.99996   0.00118046  6.67494e-06 
         200      28.7414     0.999961   0.00118045  6.93224e-06 
         200      28.9746     0.999962   0.00118044  7.18617e-06 
         200      29.2088     0.999963   0.00118043  7.44121e-06 
         200      29.4439     0.999964   0.00118042  7.70391e-06 
         200      29.6799     0.999965    0.0011804  7.98387e-06 
         200      29.9168     0.999966   0.00118035  8.29377e-06 
         200      30.1548     0.999967   0.00118028  8.61777e-06 
         200      30.3936     0.999968   0.00118031  8.86625e-06 
         200      30.6334     0.999969   0.00118032  9.14692e-06 
         200      30.8742      0.99997   0.00118032  9.44441e-06 
         200      31.1158     0.999971   0.00118031  9.74324e-06 
         200      31.3584     0.999972   0.00118025  1.00265e-05 
         200       31.602     0.999973   0.00118024  1.03351e-05 
         200      31.8465     0.999974   0.00118029  1.06342e-05 
         200      32.0919     0.999975    0.0011803  1.09204e-05 
         200      32.3383     0.999976   0.00118029  1.12035e-05 
         200      32.5856     0.999977   0.00118025  1.14892e-05 
         200       32.834     0.999978   0.00118019  1.17798e-05 
         200      33.0831     0.999979   0.00118014  1.20754e-05 
         200      33.3333      0.99998   0.00118009  1.23747e-05 
         200      33.5843     0.999981   0.00118006  1.26758e-05 
         200      33.8364     0.999982   0.00118004  1.29767e-05 
         200      34.0894     0.999983   0.00118004  1.32753e-05 
         200      34.3433     0.999984   0.00118004  1.35703e-05 
         200      34.5981     0.999986   0.00118005  1.38612e-05 
         200       34.854     0.999987   0.00118006  1.41483e-05 
         200      35.1107     0.999988   0.00118007  1.44325e-05 
         200      35.3684     0.999989   0.00118008  1.47157e-05 
         200      35.6271      0.99999   0.00118009  1.50004e-05 
         200      35.8867     0.999991   0.00118002  1.53016e-05 
         200      36.1472     0.999992   0.00117992  1.56158e-05 
         200      36.4086     0.999993   0.00117985  1.59362e-05 
         200      36.6711     0.999994   0.00117982  1.62604e-05 
         200      36.9344     0.999995    0.0011798  1.65844e-05 
         200      37.1987     0.999996    0.0011798  1.69039e-05 
         200      37.4639     0.999997   0.00117978  1.72156e-05 
         200      37.7301     0.999998   0.00117975  1.75193e-05 
         200      37.9972     0.999998   0.00117969  1.78203e-05 
         200      38.2652     0.999999   0.00117963  1.81327e-05 
         200      38.5342            1   0.00117964  1.84828e-05 
         200      38.8042            1   0.00117986  1.89138e-05 
         200      39.0751            1   0.00117976  1.91115e-05 
         200      39.3469      1.00001   0.00117944  1.94649e-05 
         200      39.6197      1.00001   0.00117954  1.97701e-05 
         200      39.8934      1.00001   0.00117961  2.00694e-05 
         200       40.168      1.00001    0.0011796  2.03763e-05 
         200      40.4436      1.00001   0.00117955  2.06764e-05 
         200      40.7202      1.00001   0.00117949  2.09607e-05 
         200      40.9977      1.00001   0.00117943  2.12234e-05 
         200      41.2761      1.00001   0.00117942  2.16437e-05 
         200      41.5554      1.00001    0.0011794  2.20314e-05 
         200      41.8358      1.00001   0.00117936  2.23761e-05 
         200       42.117      1.00002   0.00117933  2.26956e-05 
         200      42.3992      1.00002   0.00117932  2.30045e-05 
         200      42.6823      1.00002    0.0011793  2.33137e-05 
         200      42.9664      1.00002   0.00117928    2.363e-05 
         200      43.2514      1.00002   0.00117925  2.39564e-05 
         200      43.5373      1.00002    0.0011792  2.42928e-05 
         200      43.8243      1.00002   0.00117914  2.46373e-05 
         200      44.1121      1.00002   0.00117906  2.49858e-05 
         200      44.4009      1.00002   0.00117897  2.53345e-05 
         200      44.6906      1.00002    0.0011789  2.56799e-05 
         200      44.9813      1.00002   0.00117885  2.60205e-05 
         200      45.2729      1.00003   0.00117883   2.6356e-05 
         200      45.5654      1.00003   0.00117884  2.66889e-05 
         200      45.8589      1.00003   0.00117888  2.70235e-05 
         200      46.1534      1.00003    0.0011789  2.73649e-05 
         200      46.4488      1.00003   0.00117889  2.77165e-05 
         200      46.7451      1.00003   0.00117882  2.80784e-05 
         200      47.0423      1.00003   0.00117868  2.84419e-05 
         200      47.3406      1.00003   0.00117856  2.87851e-05 
         200      47.6397      1.00003   0.00117863  2.90643e-05 
         200      47.9398      1.00003   0.00117857  2.93959e-05 
         200      48.2409      1.00003   0.00117836  2.97934e-05 
         200      48.5428      1.00004   0.00117835  3.01489e-05 
         200      48.8457      1.00004   0.00117839  3.04867e-05 
         200      49.1496      1.00004   0.00117843  3.08209e-05 
         200      49.4545      1.00004    0.0011784   3.1159e-05 
         200      49.7602      1.00004   0.00117831  3.15035e-05 
         200      50.0668      1.00004   0.00117828  3.18587e-05 
         200      50.3744      1.00004   0.00117829  3.22324e-05 
         200      50.6831      1.00004   0.00117825   3.2616e-05 
         200      50.9926      1.00004    0.0011782  3.30017e-05 
         200       51.303      1.00004   0.00117812  3.33848e-05 
         200      51.6144      1.00004   0.00117805  3.37626e-05 
         200      51.9268      1.00005   0.00117798  3.41341e-05 
         200        52.24      1.00005   0.00117792   3.4499e-05 
         200      52.5542      1.00005   0.00117787  3.48584e-05 
         200      52.8694      1.00005   0.00117782  3.52135e-05 
         200      53.1856      1.00005   0.00117779  3.55658e-05 
         200      53.5026      1.00005   0.00117775  3.59164e-05 
         200      53.8205      1.00005   0.00117771  3.62667e-05 
         200      54.1396      1.00005   0.00117767  3.66177e-05 
         200      54.4594      1.00005   0.00117762  3.69697e-05 
         200      54.7802      1.00005   0.00117757  3.73233e-05 
         200      55.1019      1.00005   0.00117751  3.76783e-05 
         200      55.4247      1.00006   0.00117743  3.80349e-05 
         200      55.7483      1.00006   0.00117736  3.83923e-05 
         200      56.0729      1.00006   0.00117727  3.87505e-05 
         200      56.3984      1.00006   0.00117719   3.9109e-05 
         200       56.725      1.00006   0.00117711  3.94681e-05 
         200      57.0523      1.00006   0.00117704  3.98276e-05 
         200      57.3807      1.00006   0.00117697  4.01883e-05 
         200      57.7099      1.00006   0.00117691  4.05511e-05 
         200      58.0403      1.00006   0.00117686  4.09175e-05 
         200      58.3714      1.00006   0.00117682  4.12888e-05 
         200      58.7035      1.00006   0.00117678   4.1667e-05 
         200      59.0367      1.00006   0.00117674  4.20537e-05 
         200      59.3707      1.00007    0.0011767  4.24498e-05 
         200      59.7056      1.00007   0.00117663  4.28556e-05 
         200      60.0414      1.00007   0.00117655  4.32697e-05 
         200      60.3784      1.00007   0.00117645  4.36885e-05 
         200      60.7161      1.00007   0.00117634  4.41044e-05 
         200      61.0548      1.00007   0.00117625  4.45057e-05 
         200      61.3944      1.00007   0.00117621  4.48748e-05 
         200      61.7351      1.00007   0.00117629  4.51863e-05 
         200      62.0767      1.00007   0.00117636   4.5492e-05 
         200      62.4191      1.00007   0.00117605  4.59057e-05 
         200      62.7625      1.00007   0.00117586  4.63013e-05 
         200       63.107      1.00008   0.00117574  4.66884e-05 
         200      63.4523      1.00008   0.00117567  4.70729e-05 
         200      63.7985      1.00008   0.00117563  4.74589e-05 
         200      64.1458      1.00008   0.00117561  4.78488e-05 
         200      64.4939      1.00008   0.00117559  4.82432e-05 
         200       64.843      1.00008   0.00117557  4.86419e-05 
         200      65.1929      1.00008   0.00117553  4.90442e-05 
         200       65.544      1.00008   0.00117549   4.9449e-05 
         200      65.8959      1.00008   0.00117543  4.98547e-05 
         200      66.2487      1.00008   0.00117536  5.02601e-05 
         200      66.6025      1.00008   0.00117527  5.06643e-05 
         200      66.9573      1.00008   0.00117518  5.10667e-05 
         200       67.313      1.00008   0.00117508  5.14664e-05 
         200      67.6695      1.00008   0.00117497  5.18637e-05 
         200      68.0271      1.00009   0.00117486  5.22587e-05 
         200      68.3857      1.00009   0.00117475  5.26524e-05 
         200      68.7451      1.00009   0.00117464  5.30453e-05 
         200      69.1055      1.00009   0.00117453  5.34384e-05 
         200      69.4669      1.00009   0.00117443  5.38331e-05 
         200      69.8291      1.00009   0.00117433  5.42299e-05 
         200      70.1923      1.00009   0.00117424    5.463e-05 
         200      70.5564      1.00009   0.00117416  5.50337e-05 
         200      70.9217      1.00009   0.00117408  5.54415e-05 
         200      71.2877      1.00009   0.00117401  5.58526e-05 
         200      71.6546      1.00009   0.00117394  5.62664e-05 
         200      72.0225      1.00009   0.00117387  5.66816e-05 
         200      72.3915      1.00009   0.00117381  5.70965e-05 
         200      72.7613      1.00009   0.00117374  5.75084e-05 
         200       73.132       1.0001   0.00117367  5.79152e-05 
         200      73.5036       1.0001    0.0011736  5.83142e-05 
         200      73.8764       1.0001   0.00117352  5.87036e-05 
         200      74.2499      1.00009   0.00117345  5.90815e-05 
         200      74.6244      1.00006   0.00117338   5.9448e-05 
         200           75            1   0.00117334  5.98051e-05 
