Variables = x, y, u, v, p

Zone, I=2080, F=POINT
         -50            0 -4.72714e-19 -7.58626e-23     -178.096 
         -50      0.00048  -4.7014e-05 -7.69818e-09     -178.096 
         -50     0.001922 -0.000165557 -2.88736e-08     -178.096 
         -50     0.004326 -0.000299863 -5.86105e-08     -178.096 
         -50      0.00769 -0.000391805 -9.13796e-08     -178.096 
         -50     0.012017 -0.000413527 -1.23693e-07     -178.096 
         -50     0.017304 -0.000382071 -1.55394e-07     -178.096 
         -50     0.023553 -0.000345217 -1.89039e-07     -178.096 
         -50     0.030763 -0.000343127 -2.27301e-07     -178.096 
         -50     0.038936 -0.000371655 -2.70319e-07     -178.096 
         -50     0.048069 -0.000384723 -3.15382e-07     -178.096 
         -50     0.058163  -0.00035674 -3.60586e-07     -178.096 
         -50     0.069219 -0.000351692 -4.08732e-07     -178.096 
         -50     0.081236 -0.000374603 -4.56224e-07     -178.096 
         -50     0.094215 -0.000360714 -5.00094e-07     -178.096 
         -50     0.108155  -0.00036335 -5.42983e-07     -178.096 
         -50     0.123056 -0.000360432 -5.81254e-07     -178.096 
         -50     0.138918 -0.000358813 -6.14023e-07     -178.096 
         -50     0.155744 -0.000359662 -6.40113e-07     -178.096 
         -50     0.173529 -0.000360743 -6.58398e-07     -178.096 
         -50     0.192276 -0.000360118 -6.68357e-07     -178.096 
         -50     0.211984 -0.000359216 -6.70644e-07     -178.096 
         -50     0.232655 -0.000361185 -6.67433e-07     -178.095 
         -50     0.254285 -0.000360616 -6.63589e-07     -178.095 
         -50     0.276877 -0.000361926 -6.63368e-07     -178.095 
         -50     0.300431 -0.000362879 -6.70227e-07     -178.095 
         -50     0.324946 -0.000363738 -6.89081e-07     -178.095 
         -50     0.350424 -0.000364642 -7.12024e-07     -178.095 
         -50     0.376861 -0.000365627 -7.21598e-07     -178.095 
         -50      0.40426 -0.000366648 -6.96022e-07     -178.095 
         -50     0.432621 -0.000367616 -6.15818e-07     -178.095 
         -50     0.461945 -0.000368448 -4.70918e-07     -178.095 
         -50     0.492228 -0.000369101 -2.66687e-07     -178.095 
         -50     0.523472 -0.000369589 -2.63982e-08     -178.095 
         -50     0.555678  -0.00036995  2.12933e-07     -178.095 
         -50     0.588845 -0.000370128  4.15833e-07     -178.095 
         -50     0.622976 -0.000369983  5.51211e-07     -178.095 
         -50     0.658066 -0.000369735  6.70218e-07     -178.094 
         -50     0.694117 -0.000369285  8.23657e-07     -178.094 
         -50      0.73113 -0.000368695  1.00187e-06     -178.094 
         -50     0.769107 -0.000368021   1.1978e-06     -178.094 
         -50     0.808042 -0.000367313  1.40662e-06     -178.094 
         -50     0.847939 -0.000366616  1.62534e-06     -178.094 
         -50     0.888797 -0.000365966  1.85203e-06     -178.093 
         -50      0.93062 -0.000365391  2.08504e-06     -178.093 
         -50       0.9734 -0.000364906  2.32205e-06     -178.093 
         -50      1.01714 -0.000364518  2.55936e-06     -178.093 
         -50      1.06185 -0.000364224    2.791e-06     -178.092 
         -50      1.10751 -0.000364012  3.00844e-06     -178.092 
         -50      1.15414 -0.000363864  3.20059e-06     -178.092 
         -50      1.20173 -0.000363757  3.35453e-06     -178.091 
         -50      1.25028 -0.000363673  3.45749e-06     -178.091 
         -50      1.29979 -0.000363599  3.49993e-06     -178.091 
         -50      1.35026 -0.000363539  3.48056e-06      -178.09 
         -50       1.4017 -0.000363524  3.41366e-06      -178.09 
         -50      1.45409 -0.000363621  3.33918e-06     -178.089 
         -50      1.50745 -0.000363938  3.34007e-06     -178.089 
         -50      1.56176 -0.000363731  3.48781e-06     -178.089 
         -50      1.61705 -0.000363696  3.43687e-06     -178.088 
         -50      1.67329 -0.000363894   3.2185e-06     -178.087 
         -50      1.73049 -0.000364362  2.86557e-06     -178.087 
         -50      1.78865  -0.00036511  2.41204e-06     -178.086 
         -50      1.84778 -0.000366123  1.89227e-06     -178.086 
         -50      1.90786 -0.000367365  1.34058e-06     -178.085 
         -50      1.96891 -0.000368779  7.90184e-07     -178.084 
         -50      2.03092 -0.000370296  2.72699e-07     -178.084 
         -50      2.09389 -0.000371832  -1.8278e-07     -178.083 
         -50      2.15782 -0.000373297 -5.50283e-07     -178.082 
         -50      2.22272 -0.000374602 -8.08014e-07     -178.081 
         -50      2.28857  -0.00037566 -9.38887e-07      -178.08 
         -50      2.35539 -0.000376395   -9.313e-07     -178.079 
         -50      2.42317 -0.000376744 -7.79682e-07     -178.079 
         -50      2.49191  -0.00037667 -4.85035e-07     -178.078 
         -50      2.56161 -0.000376155  -5.5165e-08     -178.077 
         -50      2.63226 -0.000375217  4.95198e-07     -178.075 
         -50      2.70389 -0.000373901  1.14465e-06     -178.074 
         -50      2.77648 -0.000372289  1.86534e-06     -178.073 
         -50      2.85002 -0.000370493  2.62425e-06     -178.072 
         -50      2.92453 -0.000368653  3.38429e-06     -178.071 
         -50            3 -0.000366929  4.10631e-06     -178.069 
         -25            0           -0           -0     -170.928 
         -25      0.00048 -3.43724e-05 -2.87311e-09     -170.928 
         -25     0.001922 -0.000121052 -1.05727e-08     -170.928 
         -25     0.004326 -0.000219299 -2.06678e-08     -170.928 
         -25      0.00769  -0.00028665 -3.01487e-08     -170.928 
         -25     0.012017 -0.000302768 -3.64711e-08     -170.928 
         -25     0.017304 -0.000280124 -3.81116e-08     -170.928 
         -25     0.023553 -0.000253647 -3.43896e-08     -170.928 
         -25     0.030763 -0.000252699 -2.45737e-08     -170.928 
         -25     0.038936 -0.000274258 -6.95425e-09     -170.928 
         -25     0.048069 -0.000284656  2.11397e-08     -170.928 
         -25     0.058163 -0.000265187  6.18747e-08     -170.928 
         -25     0.069219 -0.000262594   1.1532e-07     -170.928 
         -25     0.081236 -0.000280519  1.83587e-07     -170.928 
         -25     0.094215 -0.000271608  2.68064e-07     -170.928 
         -25     0.108155 -0.000274785  3.67424e-07     -170.928 
         -25     0.123056 -0.000273865  4.82338e-07     -170.928 
         -25     0.138918 -0.000273807  6.11921e-07     -170.928 
         -25     0.155744 -0.000275415  7.55039e-07     -170.928 
         -25     0.173529 -0.000277006  9.10287e-07     -170.928 
         -25     0.192276 -0.000277125  1.07618e-06     -170.928 
         -25     0.211984 -0.000276786  1.25114e-06     -170.928 
         -25     0.232655 -0.000278271  1.43362e-06     -170.928 
         -25     0.254285 -0.000277619  1.62234e-06     -170.928 
         -25     0.276877 -0.000278064  1.81653e-06     -170.928 
         -25     0.300431 -0.000277985  2.01559e-06     -170.928 
         -25     0.324946 -0.000277598  2.21923e-06     -170.928 
         -25     0.350424 -0.000277035  2.42702e-06     -170.928 
         -25     0.376861 -0.000276357  2.63831e-06     -170.928 
         -25      0.40426 -0.000275567   2.8523e-06     -170.928 
         -25     0.432621 -0.000274639  3.06798e-06     -170.928 
         -25     0.461945  -0.00027355  3.28428e-06     -170.928 
         -25     0.492228 -0.000272311  3.50023e-06     -170.928 
         -25     0.523472  -0.00027097  3.71529e-06     -170.928 
         -25     0.555678 -0.000269593  3.92987e-06     -170.928 
         -25     0.588845 -0.000268174  4.14606e-06     -170.928 
         -25     0.622976  -0.00026664  4.37008e-06     -170.928 
         -25     0.658066 -0.000265156  4.60771e-06     -170.928 
         -25     0.694117 -0.000263682  4.85256e-06     -170.928 
         -25      0.73113 -0.000262289  5.09872e-06     -170.928 
         -25     0.769107 -0.000261039  5.34077e-06     -170.928 
         -25     0.808042 -0.000259982  5.57377e-06     -170.928 
         -25     0.847939 -0.000259155  5.79349e-06     -170.928 
         -25     0.888797 -0.000258582  5.99639e-06     -170.928 
         -25      0.93062  -0.00025827  6.17971e-06     -170.928 
         -25       0.9734 -0.000258216  6.34139e-06     -170.927 
         -25      1.01714 -0.000258401  6.48023e-06     -170.927 
         -25      1.06185 -0.000258795   6.5957e-06     -170.927 
         -25      1.10751  -0.00025936  6.68798e-06     -170.927 
         -25      1.15414  -0.00026005   6.7579e-06     -170.927 
         -25      1.20173 -0.000260816  6.80678e-06     -170.927 
         -25      1.25028  -0.00026161  6.83647e-06     -170.927 
         -25      1.29979 -0.000262387  6.84928e-06     -170.927 
         -25      1.35026 -0.000263112  6.84792e-06     -170.926 
         -25       1.4017 -0.000263762  6.83564e-06     -170.926 
         -25      1.45409 -0.000264331  6.81634e-06     -170.926 
         -25      1.50745 -0.000264835  6.78997e-06     -170.926 
         -25      1.56176 -0.000265423  6.57596e-06     -170.926 
         -25      1.61705 -0.000265745  6.45364e-06     -170.926 
         -25      1.67329 -0.000265855  6.38732e-06     -170.925 
         -25      1.73049 -0.000265807  6.34517e-06     -170.925 
         -25      1.78865 -0.000265652  6.29969e-06     -170.925 
         -25      1.84778 -0.000265435  6.22809e-06     -170.925 
         -25      1.90786 -0.000265201  6.11256e-06     -170.924 
         -25      1.96891 -0.000264987  5.94046e-06     -170.924 
         -25      2.03092 -0.000264824  5.70445e-06     -170.924 
         -25      2.09389 -0.000264738  5.40248e-06     -170.924 
         -25      2.15782 -0.000264747  5.03774e-06     -170.923 
         -25      2.22272 -0.000264862  4.61834e-06     -170.923 
         -25      2.28857 -0.000265086  4.15702e-06     -170.923 
         -25      2.35539 -0.000265415  3.67062e-06     -170.922 
         -25      2.42317 -0.000265836  3.17948e-06     -170.922 
         -25      2.49191  -0.00026633  2.70678e-06     -170.922 
         -25      2.56161  -0.00026687  2.27739e-06     -170.921 
         -25      2.63226 -0.000267425  1.91702e-06     -170.921 
         -25      2.70389 -0.000267959  1.65091e-06      -170.92 
         -25      2.77648 -0.000268433   1.5026e-06      -170.92 
         -25      2.85002 -0.000268808  1.49233e-06     -170.919 
         -25      2.92453  -0.00026905  1.63553e-06     -170.919 
         -25            3 -0.000269129  1.94107e-06     -170.919 
           0            0            0            0     -165.008 
           0      0.00048 -0.000105184   7.7928e-05     -165.008 
           0     0.001922 -0.000366074  0.000271179     -165.009 
           0     0.004326 -0.000648421  0.000479682      -165.01 
           0      0.00769  -0.00081587  0.000600237     -165.012 
           0     0.012017 -0.000810321  0.000585881     -165.014 
           0     0.017304 -0.000685288  0.000472443     -165.017 
           0     0.023553 -0.000565031  0.000352017     -165.019 
           0     0.030763 -0.000544427  0.000302363     -165.021 
           0     0.038936 -0.000598549  0.000319181     -165.024 
           0     0.048069 -0.000599847  0.000319908     -165.026 
           0     0.058163 -0.000492393  0.000256877     -165.029 
           0     0.069219 -0.000468399  0.000241299     -165.031 
           0     0.081236 -0.000527707  0.000265365     -165.034 
           0     0.094215 -0.000468177  0.000222477     -165.037 
           0     0.108155 -0.000460371  0.000219028     -165.039 
           0     0.123056 -0.000440375  0.000206272     -165.042 
           0     0.138918 -0.000424652  0.000194626     -165.045 
           0     0.155744 -0.000414809    0.0001866     -165.048 
           0     0.173529 -0.000404284  0.000179738     -165.051 
           0     0.192276 -0.000388566  0.000171519     -165.054 
           0     0.211984 -0.000372974  0.000163467     -165.056 
           0     0.232655 -0.000366322  0.000158983     -165.059 
           0     0.254285 -0.000351316  0.000150811     -165.062 
           0     0.276877 -0.000341046  0.000145554     -165.065 
           0     0.300431   -0.0003303  0.000139889     -165.068 
           0     0.324946 -0.000319999  0.000134441     -165.071 
           0     0.350424 -0.000310314  0.000129258     -165.074 
           0     0.376861 -0.000301232   0.00012426     -165.077 
           0      0.40426 -0.000292765  0.000119438      -165.08 
           0     0.432621 -0.000284946  0.000114796     -165.083 
           0     0.461945 -0.000277792  0.000110275     -165.086 
           0     0.492228 -0.000271327  0.000105864      -165.09 
           0     0.523472 -0.000265538  0.000101593     -165.093 
           0     0.555678 -0.000260429  9.74362e-05     -165.096 
           0     0.588845 -0.000255981  9.33729e-05     -165.099 
           0     0.622976 -0.000252162  8.93956e-05     -165.102 
           0     0.658066 -0.000248932  8.55133e-05     -165.105 
           0     0.694117 -0.000246262  8.16912e-05     -165.108 
           0      0.73113 -0.000244097  7.79539e-05     -165.111 
           0     0.769107 -0.000242342  7.43012e-05     -165.114 
           0     0.808042 -0.000240895  7.07437e-05     -165.117 
           0     0.847939 -0.000239789  6.72078e-05      -165.12 
           0     0.888797 -0.000238858  6.37665e-05     -165.123 
           0      0.93062  -0.00023804  6.04128e-05     -165.125 
           0       0.9734  -0.00023728  5.71397e-05     -165.128 
           0      1.01714 -0.000236535   5.3942e-05     -165.131 
           0      1.06185 -0.000235774  5.08184e-05     -165.134 
           0      1.10751 -0.000234978  4.77724e-05     -165.137 
           0      1.15414 -0.000234141  4.48134e-05      -165.14 
           0      1.20173 -0.000233268  4.19595e-05     -165.143 
           0      1.25028 -0.000232429  3.91902e-05     -165.146 
           0      1.29979 -0.000231715  3.64981e-05     -165.148 
           0      1.35026 -0.000231127   3.3886e-05     -165.151 
           0       1.4017 -0.000230664   3.1364e-05     -165.154 
           0      1.45409 -0.000230329  2.89447e-05     -165.157 
           0      1.50745  -0.00023013  2.66339e-05     -165.159 
           0      1.56176 -0.000230084  2.44167e-05     -165.162 
           0      1.61705 -0.000230223  2.22708e-05     -165.165 
           0      1.67329 -0.000230503  2.02442e-05     -165.167 
           0      1.73049 -0.000230871  1.82978e-05      -165.17 
           0      1.78865 -0.000231356  1.64466e-05     -165.172 
           0      1.84778 -0.000231975  1.46988e-05     -165.175 
           0      1.90786 -0.000232735  1.30535e-05     -165.177 
           0      1.96891  -0.00023363  1.14989e-05      -165.18 
           0      2.03092  -0.00023463  1.00133e-05     -165.182 
           0      2.09389 -0.000235701  8.58819e-06     -165.185 
           0      2.15782 -0.000237009  7.30069e-06     -165.187 
           0      2.22272  -0.00023846  6.05895e-06     -165.189 
           0      2.28857 -0.000240019  4.87833e-06     -165.192 
           0      2.35539 -0.000241649  3.76097e-06     -165.194 
           0      2.42317 -0.000243315  2.69654e-06     -165.196 
           0      2.49191 -0.000244985  1.66918e-06     -165.198 
           0      2.56161 -0.000246627  6.71339e-07     -165.201 
           0      2.63226 -0.000248201 -2.71829e-07     -165.203 
           0      2.70389 -0.000249616 -1.13373e-06     -165.205 
           0      2.77648 -0.000250733 -1.98864e-06     -165.207 
           0      2.85002 -0.000251563  -2.7196e-06     -165.209 
           0      2.92453 -0.000252061 -3.33937e-06     -165.211 
           0            3 -0.000252188 -3.84601e-06     -165.213 
          20            0            0            0     -161.442 
          20      0.00048  -2.7394e-05 -1.65938e-09     -161.442 
          20     0.001922 -9.66996e-05 -5.94381e-09     -161.442 
          20     0.004326 -0.000175994 -1.09799e-08     -161.442 
          20      0.00769 -0.000231996 -1.43085e-08     -161.442 
          20     0.012017 -0.000248745  -1.3566e-08     -161.442 
          20     0.017304 -0.000235961 -6.91671e-09     -161.442 
          20     0.023553 -0.000220946   6.9471e-09     -161.442 
          20     0.030763 -0.000226625  2.91969e-08     -161.442 
          20     0.038936 -0.000250551   6.1307e-08     -161.442 
          20     0.048069 -0.000266257  1.04928e-07     -161.442 
          20     0.058163 -0.000258992  1.60985e-07     -161.442 
          20     0.069219 -0.000265261   2.2869e-07     -161.442 
          20     0.081236   -0.0002878  3.07908e-07     -161.442 
          20     0.094215 -0.000289409  3.97651e-07     -161.442 
          20     0.108155 -0.000300465  4.94965e-07     -161.442 
          20     0.123056 -0.000308191  5.97577e-07     -161.442 
          20     0.138918 -0.000316379  7.02214e-07     -161.442 
          20     0.155744 -0.000325581  8.05447e-07     -161.442 
          20     0.173529 -0.000334414  9.03713e-07     -161.442 
          20     0.192276 -0.000341689  9.93486e-07     -161.442 
          20     0.211984 -0.000348164  1.07136e-06     -161.442 
          20     0.232655 -0.000355605  1.13451e-06     -161.442 
          20     0.254285 -0.000360901  1.18157e-06     -161.442 
          20     0.276877 -0.000366584  1.20935e-06     -161.442 
          20     0.300431 -0.000371393  1.21704e-06     -161.442 
          20     0.324946  -0.00037551   1.2061e-06     -161.442 
          20     0.350424 -0.000379061  1.17732e-06     -161.442 
          20     0.376861 -0.000382111  1.13109e-06     -161.442 
          20      0.40426 -0.000384689  1.06788e-06     -161.442 
          20     0.432621   -0.0003868  9.88629e-07     -161.442 
          20     0.461945 -0.000388454  8.95107e-07     -161.442 
          20     0.492228 -0.000389683   7.8987e-07     -161.442 
          20     0.523472 -0.000390548  6.75487e-07     -161.442 
          20     0.555678 -0.000391114  5.52664e-07     -161.441 
          20     0.588845 -0.000391377  4.16609e-07     -161.441 
          20     0.622976 -0.000391201  2.59087e-07     -161.441 
          20     0.658066 -0.000390791  1.04187e-07     -161.441 
          20     0.694117 -0.000390073 -5.38933e-08     -161.441 
          20      0.73113  -0.00038892 -2.21961e-07     -161.441 
          20     0.769107 -0.000387231 -4.02396e-07     -161.441 
          20     0.808042 -0.000384932 -5.93605e-07     -161.441 
          20     0.847939 -0.000381977 -7.90896e-07     -161.441 
          20     0.888797 -0.000378346 -9.87449e-07     -161.441 
          20      0.93062 -0.000374046 -1.17562e-06     -161.441 
          20       0.9734 -0.000369107 -1.34823e-06     -161.441 
          20      1.01714 -0.000363575 -1.50008e-06     -161.441 
          20      1.06185  -0.00035751 -1.62907e-06     -161.441 
          20      1.10751 -0.000350979 -1.73709e-06     -161.441 
          20      1.15414 -0.000344049  -1.8303e-06     -161.441 
          20      1.20173 -0.000336789 -1.91838e-06     -161.441 
          20      1.25028 -0.000329256 -2.01253e-06     -161.441 
          20      1.29979 -0.000321501 -2.12157e-06     -161.441 
          20      1.35026 -0.000313572 -2.24573e-06     -161.441 
          20       1.4017  -0.00030552 -2.36731e-06      -161.44 
          20      1.45409 -0.000297415 -2.43763e-06      -161.44 
          20      1.50745 -0.000289381 -2.36754e-06      -161.44 
          20      1.56176 -0.000281744 -2.55989e-06      -161.44 
          20      1.61705 -0.000273801  -2.6822e-06      -161.44 
          20      1.67329 -0.000265785  -2.7628e-06      -161.44 
          20      1.73049 -0.000257892 -2.82498e-06      -161.44 
          20      1.78865 -0.000250284 -2.88677e-06      -161.44 
          20      1.84778 -0.000243088 -2.96103e-06     -161.439 
          20      1.90786 -0.000236396 -3.05542e-06     -161.439 
          20      1.96891 -0.000230264 -3.17275e-06     -161.439 
          20      2.03092 -0.000224717 -3.31127e-06     -161.439 
          20      2.09389  -0.00021975  -3.4652e-06     -161.439 
          20      2.15782 -0.000215331 -3.62528e-06     -161.439 
          20      2.22272 -0.000211407 -3.77954e-06     -161.439 
          20      2.28857 -0.000207909 -3.91412e-06     -161.438 
          20      2.35539 -0.000204754 -4.01416e-06     -161.438 
          20      2.42317 -0.000201855 -4.06479e-06     -161.438 
          20      2.49191 -0.000199127 -4.05211e-06     -161.438 
          20      2.56161 -0.000196489 -3.96427e-06     -161.438 
          20      2.63226 -0.000193876 -3.79238e-06     -161.437 
          20      2.70389 -0.000191241 -3.53143e-06     -161.437 
          20      2.77648 -0.000188561 -3.18114e-06     -161.437 
          20      2.85002 -0.000185838  -2.7464e-06     -161.437 
          20      2.92453 -0.000183108 -2.23762e-06     -161.436 
          20            3 -0.000180431 -1.67064e-06     -161.436 
          40            0            0            0     -157.715 
          40      0.00048 -2.46135e-05 -5.91515e-10     -157.715 
          40     0.001922 -8.65114e-05 -2.27033e-09     -157.715 
          40     0.004326   -0.0001561 -4.80054e-09     -157.715 
          40      0.00769 -0.000202543 -7.94861e-09     -157.715 
          40     0.012017  -0.00021109 -1.16242e-08     -157.715 
          40     0.017304 -0.000190844 -1.58921e-08     -157.715 
          40     0.023553 -0.000167238  -2.0828e-08     -157.715 
          40     0.030763 -0.000161678 -2.62105e-08     -157.715 
          40     0.038936  -0.00017205 -3.12182e-08     -157.715 
          40     0.048069  -0.00017399 -3.43177e-08     -157.715 
          40     0.058163 -0.000154022 -3.34882e-08     -157.715 
          40     0.069219 -0.000146242 -2.64893e-08     -157.715 
          40     0.081236 -0.000153429 -1.00048e-08     -157.715 
          40     0.094215 -0.000141316  1.97509e-08     -157.715 
          40     0.108155 -0.000138321  6.65415e-08     -157.715 
          40     0.123056 -0.000132812  1.34963e-07     -157.715 
          40     0.138918 -0.000128502  2.29517e-07     -157.715 
          40     0.155744 -0.000126065  3.54707e-07     -157.715 
          40     0.173529  -0.00012434  5.14774e-07     -157.715 
          40     0.192276 -0.000122301  7.13629e-07     -157.715 
          40     0.211984 -0.000120688  9.54581e-07     -157.715 
          40     0.232655 -0.000121131  1.24023e-06     -157.715 
          40     0.254285 -0.000120696  1.57217e-06     -157.715 
          40     0.276877 -0.000121659  1.95169e-06     -157.715 
          40     0.300431 -0.000122749  2.37882e-06     -157.715 
          40     0.324946 -0.000124019  2.85242e-06     -157.715 
          40     0.350424 -0.000125464  3.37088e-06     -157.715 
          40     0.376861 -0.000127029  3.93193e-06     -157.715 
          40      0.40426 -0.000128626  4.53284e-06     -157.715 
          40     0.432621 -0.000130164  5.17014e-06     -157.715 
          40     0.461945  -0.00013157  5.83977e-06     -157.715 
          40     0.492228 -0.000132813  6.53696e-06     -157.715 
          40     0.523472  -0.00013391  7.25677e-06     -157.715 
          40     0.555678 -0.000134908   7.9944e-06     -157.715 
          40     0.588845 -0.000135815  8.74599e-06     -157.715 
          40     0.622976 -0.000136569  9.51044e-06     -157.715 
          40     0.658066 -0.000137343  1.02758e-05     -157.715 
          40     0.694117 -0.000138142  1.10375e-05     -157.715 
          40      0.73113 -0.000139001  1.17965e-05     -157.715 
          40     0.769107 -0.000139945  1.25528e-05     -157.715 
          40     0.808042 -0.000140991   1.3306e-05     -157.715 
          40     0.847939 -0.000142149  1.40553e-05     -157.715 
          40     0.888797 -0.000143421  1.47995e-05     -157.715 
          40      0.93062 -0.000144806  1.55373e-05     -157.715 
          40       0.9734 -0.000146293  1.62674e-05     -157.715 
          40      1.01714 -0.000147874  1.69888e-05     -157.715 
          40      1.06185 -0.000149537  1.77007e-05     -157.715 
          40      1.10751 -0.000151274  1.84028e-05     -157.715 
          40      1.15414 -0.000153079  1.90951e-05     -157.715 
          40      1.20173 -0.000154953  1.97776e-05     -157.715 
          40      1.25028 -0.000156901  2.04498e-05     -157.715 
          40      1.29979 -0.000158936  2.11099e-05     -157.715 
          40      1.35026 -0.000161075  2.17536e-05     -157.715 
          40       1.4017  -0.00016333  2.23715e-05     -157.715 
          40      1.45409 -0.000165711  2.29477e-05     -157.715 
          40      1.50745 -0.000168201  2.34571e-05     -157.715 
          40      1.56176 -0.000170625  2.39885e-05     -157.715 
          40      1.61705 -0.000172987  2.44789e-05     -157.715 
          40      1.67329 -0.000175243  2.49277e-05     -157.715 
          40      1.73049 -0.000177365  2.53334e-05     -157.715 
          40      1.78865  -0.00017934  2.56945e-05     -157.715 
          40      1.84778 -0.000181162  2.60087e-05     -157.715 
          40      1.90786 -0.000182841  2.62735e-05     -157.714 
          40      1.96891 -0.000184395   2.6486e-05     -157.714 
          40      2.03092 -0.000185851  2.66431e-05     -157.714 
          40      2.09389 -0.000187245  2.67415e-05     -157.714 
          40      2.15782 -0.000188615  2.67777e-05     -157.714 
          40      2.22272 -0.000190003  2.67481e-05     -157.714 
          40      2.28857 -0.000191451  2.66496e-05     -157.714 
          40      2.35539 -0.000192997  2.64791e-05     -157.714 
          40      2.42317 -0.000194676  2.62338e-05     -157.714 
          40      2.49191  -0.00019651   2.5912e-05     -157.714 
          40      2.56161 -0.000198515  2.55124e-05     -157.714 
          40      2.63226 -0.000200691  2.50347e-05     -157.714 
          40      2.70389 -0.000203024  2.44801e-05     -157.714 
          40      2.77648 -0.000205483  2.38509e-05     -157.714 
          40      2.85002 -0.000208019  2.31513e-05     -157.713 
          40      2.92453  -0.00021057  2.23873e-05     -157.713 
          40            3 -0.000213057  2.15667e-05     -157.713 
          60            0           -0           -0     -154.181 
          60      0.00048 -2.35479e-05 -3.41245e-10     -154.181 
          60     0.001922 -8.27174e-05 -1.16686e-09     -154.181 
          60     0.004326 -0.000149079 -1.90722e-09     -154.181 
          60      0.00769 -0.000193025 -1.69218e-09     -154.181 
          60     0.012017 -0.000200416  5.90945e-10     -154.181 
          60     0.017304 -0.000180058   6.3049e-09     -154.181 
          60     0.023553  -0.00015646  1.71754e-08     -154.181 
          60     0.030763 -0.000150263  3.54671e-08     -154.181 
          60     0.038936 -0.000159498  6.41598e-08     -154.181 
          60     0.048069 -0.000160802  1.06942e-07     -154.181 
          60     0.058163 -0.000141277  1.68034e-07     -154.181 
          60     0.069219 -0.000133741  2.51931e-07     -154.181 
          60     0.081236 -0.000140898  3.63789e-07     -154.181 
          60     0.094215  -0.00012982  5.08932e-07     -154.181 
          60     0.108155  -0.00012783  6.92392e-07     -154.181 
          60     0.123056 -0.000123729  9.19415e-07     -154.181 
          60     0.138918 -0.000121062  1.19466e-06     -154.181 
          60     0.155744 -0.000120435  1.52224e-06     -154.181 
          60     0.173529 -0.000120685  1.90539e-06     -154.181 
          60     0.192276 -0.000120776   2.3467e-06     -154.181 
          60     0.211984 -0.000121361  2.84783e-06     -154.181 
          60     0.232655 -0.000123954  3.40944e-06     -154.181 
          60     0.254285 -0.000125689  4.03067e-06     -154.181 
          60     0.276877 -0.000128704   4.7115e-06     -154.181 
          60     0.300431  -0.00013174  5.44993e-06     -154.181 
          60     0.324946  -0.00013482  6.24283e-06     -154.181 
          60     0.350424 -0.000137911  7.08735e-06     -154.181 
          60     0.376861 -0.000140935  7.98054e-06     -154.181 
          60      0.40426 -0.000143792  8.91958e-06     -154.181 
          60     0.432621 -0.000146374  9.90114e-06     -154.181 
          60     0.461945 -0.000148597  1.09214e-05     -154.181 
          60     0.492228 -0.000150417  1.19755e-05     -154.181 
          60     0.523472 -0.000151838  1.30584e-05     -154.181 
          60     0.555678 -0.000152896  1.41655e-05     -154.181 
          60     0.588845 -0.000153598  1.52939e-05     -154.181 
          60     0.622976 -0.000153935  1.64398e-05     -154.181 
          60     0.658066 -0.000154041  1.75874e-05     -154.181 
          60     0.694117 -0.000153944  1.87339e-05     -154.181 
          60      0.73113 -0.000153796  1.98725e-05     -154.181 
          60     0.769107 -0.000153728   2.0996e-05     -154.181 
          60     0.808042 -0.000153848  2.20969e-05     -154.181 
          60     0.847939 -0.000154238  2.31676e-05     -154.181 
          60     0.888797 -0.000154955  2.42012e-05     -154.181 
          60      0.93062 -0.000156024  2.51916e-05     -154.181 
          60       0.9734 -0.000157445   2.6134e-05     -154.181 
          60      1.01714  -0.00015919  2.70251e-05     -154.181 
          60      1.06185 -0.000161207  2.78636e-05     -154.181 
          60      1.10751 -0.000163428  2.86503e-05     -154.181 
          60      1.15414 -0.000165772  2.93878e-05     -154.181 
          60      1.20173 -0.000168155    3.008e-05     -154.181 
          60      1.25028 -0.000170502  3.07317e-05     -154.181 
          60      1.29979 -0.000172754   3.1347e-05     -154.181 