Variables = x, y, u, v, p

Zone, I=416, F=POINT
         -50            0  2.91381e-20  1.66763e-23      26.6881 
         -50     0.013333  2.57161e-05  1.91843e-08      26.6881 
         -50     0.053333  2.89359e-05  3.68942e-08      26.6881 
         -50         0.12  3.52267e-05    8.536e-08      26.6881 
         -50     0.213332  3.88848e-05  2.49239e-07      26.6881 
         -50     0.333332  3.87236e-05  7.08527e-07       26.688 
         -50         0.48  3.71178e-05   1.6009e-06       26.688 
         -50     0.653331  3.57406e-05   2.6816e-06      26.6879 
         -50     0.853332  3.38009e-05  3.70906e-06      26.6878 
         -50         1.08  3.04055e-05  4.77254e-06      26.6876 
         -50      1.33333  2.59132e-05  5.82028e-06      26.6873 
         -50      1.61333  2.22387e-05  6.91126e-06       26.687 
         -50         1.92  1.93622e-05  7.52272e-06      26.6865 
         -50      2.25333  1.34392e-05  6.63221e-06      26.6859 
         -50      2.61333  8.59197e-06  6.37319e-06      26.6852 
         -50            3  1.00786e-05  9.91695e-06      26.6842 
         -25            0           -0           -0      25.6138 
         -25     0.013333  1.42426e-05  1.62848e-08      25.6138 
         -25     0.053333  2.81952e-06  1.69254e-07      25.6138 
         -25         0.12 -1.12765e-05  6.31293e-07      25.6138 
         -25     0.213332 -2.28924e-05  1.36221e-06      25.6137 
         -25     0.333332 -2.76061e-05  2.12745e-06      25.6137 
         -25         0.48 -2.63576e-05  2.70398e-06      25.6137 
         -25     0.653331  -2.0969e-05  3.30068e-06      25.6137 
         -25     0.853332 -1.23259e-05  4.03137e-06      25.6136 
         -25         1.08  -3.5079e-06  4.79724e-06      25.6136 
         -25      1.33333  3.01968e-06  5.47532e-06      25.6135 
         -25      1.61333  7.83165e-06  5.85048e-06      25.6133 
         -25         1.92  1.04451e-05  6.26067e-06      25.6132 
         -25      2.25333  1.78942e-05  7.61919e-06      25.6129 
         -25      2.61333  2.75051e-05  7.90034e-06      25.6126 
         -25            3  3.01313e-05  4.30498e-06      25.6123 
           0            0            0            0      24.7246 
           0     0.013333 -3.82366e-06 -3.77111e-05      24.7259 
           0     0.053333  5.66393e-06 -9.47185e-06      24.7278 
           0         0.12   7.5218e-06 -8.07802e-06      24.7299 
           0     0.213332  1.95051e-05  -5.4117e-06      24.7321 
           0     0.333332  3.47277e-05 -6.03531e-06      24.7345 
           0         0.48   4.5128e-05 -7.47693e-06      24.7369 
           0     0.653331  4.85687e-05 -9.72269e-06      24.7392 
           0     0.853332  4.56348e-05 -1.24925e-05      24.7416 
           0         1.08  3.98573e-05 -1.53387e-05      24.7439 
           0      1.33333  3.29011e-05 -1.78029e-05      24.7461 
           0      1.61333  2.29493e-05 -1.96517e-05      24.7483 
           0         1.92  1.19419e-05  -2.0537e-05      24.7503 
           0      2.25333  2.01419e-06 -2.09255e-05      24.7522 
           0      2.61333 -1.00984e-05 -2.09638e-05       24.754 
           0            3 -1.56087e-05  -1.7383e-05      24.7556 
          20            0            0            0      24.1887 
          20     0.013333  6.14577e-06   5.4823e-09      24.1887 
          20     0.053333 -1.54555e-05  3.97348e-08      24.1887 
          20         0.12 -4.23569e-05  1.22437e-07      24.1887 
          20     0.213332 -6.72319e-05  1.79307e-07      24.1887 
          20     0.333332 -8.38898e-05  4.64661e-09      24.1887 
          20         0.48 -9.17396e-05 -6.46831e-07      24.1887 
          20     0.653331 -9.38329e-05 -1.88747e-06      24.1886 
          20     0.853332 -9.01753e-05 -3.57519e-06      24.1886 
          20         1.08  -7.7439e-05 -5.28786e-06      24.1886 
          20      1.33333 -5.72189e-05 -6.68423e-06      24.1885 
          20      1.61333 -3.25379e-05 -7.65089e-06      24.1884 
          20         1.92 -9.69011e-06 -8.52291e-06      24.1883 
          20      2.25333  5.11802e-06 -8.63472e-06      24.1882 
          20      2.61333    1.114e-05 -8.86777e-06       24.188 
          20            3  1.13324e-05 -9.99923e-06      24.1878 
          40            0            0            0      23.6283 
          40     0.013333  2.68889e-05  1.98664e-08      23.6283 
          40     0.053333   5.6076e-05  3.16161e-07      23.6283 
          40         0.12  7.58141e-05  1.59814e-06      23.6283 
          40     0.213332  6.85425e-05  4.73098e-06      23.6283 
          40     0.333332  4.22987e-05  1.01368e-05      23.6283 
          40         0.48  1.80743e-05  1.76599e-05      23.6283 
          40     0.653331  1.02709e-05  2.68693e-05      23.6283 
          40     0.853332  1.57697e-05  3.69747e-05      23.6283 
          40         1.08  1.98281e-05  4.68372e-05      23.6283 
          40      1.33333  1.60347e-05  5.54594e-05      23.6283 
          40      1.61333  8.55725e-06  6.20975e-05      23.6283 
          40         1.92  3.27724e-06  6.58036e-05      23.6282 
          40      2.25333 -3.36587e-06   6.6047e-05      23.6282 
          40      2.61333 -7.93772e-06   6.3958e-05      23.6281 
          40            3 -5.23625e-06  6.20066e-05       23.628 
          60            0           -0           -0      23.0967 
          60     0.013333  1.87987e-05 -9.30299e-09      23.0967 
          60     0.053333  3.72973e-05 -1.35852e-07      23.0967 
          60         0.12  6.61093e-05 -5.42204e-07      23.0967 
          60     0.213332  9.48231e-05 -1.21155e-06      23.0967 
          60     0.333332  0.000114045 -1.87593e-06      23.0967 
          60         0.48  0.000121724 -2.21813e-06      23.0967 
          60     0.653331  0.000121472  -2.1126e-06      23.0967 
          60     0.853332  0.000114532 -1.76126e-06      23.0967 
          60         1.08   9.7707e-05 -1.61135e-06      23.0967 
          60      1.33333  7.37624e-05 -1.90071e-06      23.0966 
          60      1.61333  4.85524e-05 -2.35166e-06      23.0966 
          60         1.92  2.05697e-05 -2.85387e-06      23.0966 
          60      2.25333 -4.74709e-06  -3.5145e-06      23.0966 
          60      2.61333 -2.30452e-05 -3.95855e-06      23.0965 
          60            3 -3.17384e-05 -3.84846e-06      23.0965 
          80            0           -0           -0      22.5813 
          80     0.013333  9.11415e-06  -3.1355e-08      22.5813 
          80     0.053333  9.20778e-06 -4.73691e-07      22.5813 
          80         0.12  2.87279e-05 -2.10338e-06      22.5813 
          80     0.213332  6.34364e-05 -5.41739e-06      22.5813 
          80     0.333332  9.38129e-05 -1.01353e-05      22.5813 
          80         0.48  0.000106062 -1.55859e-05      22.5813 
          80     0.653331  9.98995e-05 -2.13545e-05      22.5813 
          80     0.853332   8.2103e-05 -2.71819e-05      22.5813 
          80         1.08  6.32946e-05 -3.24893e-05      22.5813 
          80      1.33333  4.75556e-05  -3.6756e-05      22.5813 
          80      1.61333  3.13027e-05 -3.96912e-05      22.5813 
          80         1.92  1.24935e-05 -4.09508e-05      22.5813 
          80      2.25333  6.91473e-08 -4.02009e-05      22.5813 
          80      2.61333 -7.16833e-06 -3.80096e-05      22.5813 
          80            3 -1.43442e-05  -3.5172e-05      22.5812 
         100            0            0            0      22.0763 
         100     0.013333 -9.22874e-07 -4.06542e-08      22.0763 
         100     0.053333 -2.27004e-05 -6.31183e-07      22.0763 
         100         0.12 -2.00491e-05 -2.93334e-06      22.0763 
         100     0.213332  1.46747e-05 -7.96883e-06      22.0763 
         100     0.333332  5.84946e-05 -1.57555e-05      22.0763 
         100         0.48  8.53959e-05 -2.55017e-05      22.0763 
         100     0.653331  8.69621e-05  -3.6445e-05      22.0763 
         100     0.853332  6.99374e-05 -4.79363e-05      22.0763 
         100         1.08  5.03141e-05  -5.8924e-05      22.0763 
         100      1.33333  3.74756e-05 -6.82731e-05      22.0763 
         100      1.61333  2.66844e-05 -7.52911e-05      22.0763 
         100         1.92  1.31633e-05 -7.91297e-05      22.0763 
         100      2.25333   2.3888e-06 -7.94095e-05      22.0763 
         100      2.61333 -5.38208e-06 -7.66044e-05      22.0762 
         100            3 -1.12364e-05 -7.15652e-05      22.0762 
         150            0           -0           -0      20.8379 
         150     0.013333  3.10585e-05 -2.39536e-08      20.8379 
         150     0.053333  8.50503e-05 -3.06231e-07      20.8379 
         150         0.12  0.000158275 -1.04782e-06      20.8379 
         150     0.213332  0.000221762  -1.8535e-06      20.8379 
         150     0.333332  0.000258234 -1.96145e-06      20.8379 
         150         0.48  0.000272345 -9.62967e-07      20.8379 
         150     0.653331  0.000274751  8.66851e-07      20.8379 
         150     0.853332  0.000262891  2.61931e-06      20.8379 
         150         1.08  0.000227187  3.34179e-06      20.8379 
         150      1.33333  0.000175788  2.95562e-06      20.8379 
         150      1.61333  0.000121975  2.21384e-06      20.8379 
         150         1.92  6.36343e-05  1.22277e-06      20.8379 
         150      2.25333   1.2336e-05  1.10621e-07      20.8379 
         150      2.61333 -2.78929e-05 -9.38303e-07      20.8379 
         150            3 -5.56665e-05 -1.37245e-06      20.8379 
         200            0  1.86827e-20  6.48107e-26       19.615 
         200     0.013333  1.50612e-07 -1.62312e-08       19.615 
         200     0.053333  -2.3386e-05 -2.70817e-07       19.615 
         200         0.12 -3.33263e-05 -1.38644e-06       19.615 
         200     0.213332 -1.63794e-05 -4.15024e-06       19.615 
         200     0.333332  1.77275e-05 -8.90774e-06       19.615 
         200         0.48  4.79655e-05 -1.52777e-05       19.615 
         200     0.653331  6.30038e-05 -2.25383e-05       19.615 
         200     0.853332  6.50691e-05 -3.00418e-05       19.615 
         200         1.08  6.09614e-05 -3.72923e-05       19.615 
         200      1.33333  5.40463e-05 -4.39134e-05       19.615 
         200      1.61333  4.47829e-05 -4.95078e-05       19.615 
         200         1.92   3.3112e-05 -5.34894e-05       19.615 
         200      2.25333  2.34475e-05 -5.53846e-05       19.615 
         200      2.61333  1.57151e-05  -5.5207e-05       19.615 
         200            3  7.94348e-06 -5.31888e-05       19.615 
         250            0           -0           -0       18.398 
         250     0.013333 -8.57643e-06 -4.30665e-08       18.398 
         250     0.053333 -4.86236e-05 -6.66415e-07       18.398 
         250         0.12 -6.59339e-05 -3.11568e-06       18.398 
         250     0.213332 -4.27241e-05 -8.57671e-06       18.398 
         250     0.333332  2.00673e-06 -1.72841e-05       18.398 
         250         0.48  3.79837e-05 -2.86014e-05       18.398 
         250     0.653331  4.91686e-05 -4.18607e-05       18.398 
         250     0.853332  3.54522e-05 -5.65907e-05       18.398 
         250         1.08  1.27683e-05 -7.17719e-05       18.398 
         250      1.33333  2.33632e-06 -8.57516e-05       18.398 
         250      1.61333  2.52507e-06 -9.73901e-05       18.398 
         250         1.92  3.79065e-07 -0.000105852       18.398 
         250      2.25333 -3.36538e-06 -0.000110496       18.398 
         250      2.61333 -6.46441e-06  -0.00011095       18.398 
         250            3 -6.72247e-06 -0.000107301       18.398 
         300            0           -0           -0      17.1833 
         300     0.013333  5.97716e-07 -3.95957e-09      17.1833 
         300     0.053333  -2.6128e-05 -7.47971e-08      17.1833 
         300         0.12 -5.12997e-05 -4.38273e-07      17.1833 
         300     0.213332  -6.1794e-05 -1.48454e-06      17.1833 
         300     0.333332 -5.53579e-05 -3.55753e-06      17.1833 
         300         0.48 -4.06317e-05 -6.72048e-06      17.1833 
         300     0.653331 -2.73216e-05 -1.07738e-05      17.1833 
         300     0.853332 -1.97416e-05 -1.54355e-05      17.1833 
         300         1.08 -1.63894e-05 -2.04052e-05      17.1833 
         300      1.33333 -1.22666e-05 -2.52512e-05      17.1833 
         300      1.61333 -5.05431e-06 -2.95602e-05      17.1833 
         300         1.92  2.51986e-06 -3.29853e-05      17.1833 
         300      2.25333  8.36202e-06 -3.52913e-05      17.1833 
         300      2.61333  1.13248e-05  -3.6311e-05      17.1833 
         300            3  1.22861e-05 -3.59331e-05      17.1833 
         350            0           -0           -0      15.9696 
         350     0.013333   1.6374e-05   5.3185e-08      15.9696 
         350     0.053333  1.30957e-05  8.01386e-07      15.9696 
         350         0.12 -2.67622e-05  3.62415e-06      15.9696 
         350     0.213332 -0.000106441  9.63845e-06      15.9696 
         350     0.333332  -0.00019235  1.87505e-05      15.9696 
         350         0.48 -0.000249075   2.9878e-05      15.9696 
         350     0.653331 -0.000266071  4.20359e-05      15.9696 
         350     0.853332 -0.000250314  5.48518e-05      15.9696 
         350         1.08 -0.000214039  6.80201e-05      15.9696 
         350      1.33333  -0.00017284  8.07193e-05      15.9696 
         350      1.61333 -0.000134137  9.19184e-05      15.9696 
         350         1.92 -9.18422e-05   0.00010082      15.9696 
         350      2.25333 -4.88473e-05  0.000106663      15.9696 
         350      2.61333 -8.51291e-06  0.000108957      15.9696 
         350            3  2.66894e-05    0.0001076      15.9696 
         400            0           -0           -0      14.7569 
         400     0.013333   6.6014e-05 -6.09204e-09      14.7569 
         400     0.053333  0.000204632  7.00554e-09      14.7569 
         400         0.12  0.000361351  6.69599e-07      14.7569 
         400     0.213332  0.000459074  3.72117e-06      14.7569 
         400     0.333332  0.000470317  1.10641e-05      14.7569 
         400         0.48  0.000430245  2.32436e-05      14.7569 
         400     0.653331  0.000388868  3.92035e-05      14.7569 
         400     0.853332  0.000363226   5.7054e-05      14.7569 
         400         1.08  0.000333933   7.4665e-05      14.7569 
         400      1.33333  0.000282065  9.04526e-05      14.7569 
         400      1.61333  0.000217578  0.000104045      14.7569 
         400         1.92  0.000152875  0.000115222      14.7569 
         400      2.25333  8.85827e-05  0.000123046      14.7569 
         400      2.61333  2.68458e-05  0.000126919      14.7569 
         400            3 -2.70129e-05  0.000126574      14.7569 
         450            0  1.15228e-20  3.14469e-27      13.5445 
         450     0.013333  7.49355e-06 -6.64715e-08      13.5445 
         450     0.053333  1.42059e-05 -9.76482e-07      13.5445 
         450         0.12  6.35197e-05 -4.26063e-06      13.5445 
         450     0.213332  0.000150116 -1.09017e-05      13.5445 
         450     0.333332  0.000234971 -2.04986e-05      13.5445 
         450         0.48  0.000286216 -3.19154e-05      13.5445 
         450     0.653331  0.000299202  -4.4554e-05      13.5445 
         450     0.853332   0.00027796 -5.87277e-05      13.5445 
         450         1.08  0.000225902 -7.47619e-05      13.5445 
         450      1.33333  0.000164024 -9.16402e-05      13.5445 
         450      1.61333  0.000118626 -0.000107302      13.5445 
         450         1.92  8.21766e-05 -0.000120391      13.5445 
         450      2.25333  4.76425e-05 -0.000130152      13.5445 
         450      2.61333  1.57842e-05 -0.000135904      13.5445 
         450            3 -1.07079e-05 -0.000137197      13.5445 
         500            0            0            0      12.3326 
         500     0.013333  -3.5871e-05   9.8706e-09      12.3326 
         500     0.053333 -0.000159743  8.04111e-08      12.3326 
         500         0.12 -0.000304638 -9.17179e-08      12.3326 
         500     0.213332 -0.000405281 -1.70315e-06      12.3326 
         500     0.333332 -0.000427306 -6.39037e-06      12.3326 
         500         0.48 -0.000389433 -1.50468e-05      12.3326 
         500     0.653331   -0.0003352 -2.72888e-05      12.3326 
         500     0.853332 -0.000292448 -4.19355e-05      12.3326 
         500         1.08 -0.000260063 -5.75872e-05      12.3326 
         500      1.33333 -0.000222816 -7.29431e-05      12.3326 
         500      1.61333 -0.000174879 -8.71653e-05      12.3326 
         500         1.92 -0.000123085  -9.9743e-05      12.3326 
         500      2.25333 -6.96914e-05 -0.000110009      12.3326 
         500      2.61333 -1.67263e-05  -0.00011713      12.3326 
         500            3  3.22682e-05 -0.000120508      12.3326 
         550            0           -0           -0      11.1219 
         550     0.013333  9.92145e-05 -1.98483e-08      11.1219 
         550     0.053333  0.000329465 -1.74897e-07      11.1219 
         550         0.12  0.000609455  3.16672e-08      11.1219 
         550     0.213332  0.000818627  2.69346e-06      11.1219 
         550     0.333332  0.000891629  1.06782e-05      11.1219 
         550         0.48  0.000858064  2.55158e-05      11.1219 
         550     0.653331  0.000792857  4.64573e-05      11.1219 
         550     0.853332  0.000740788  7.12527e-05      11.1219 
         550         1.08  0.000691342  9.71178e-05      11.1219 
         550      1.33333  0.000613827  0.000121651      11.1219 
         550      1.61333  0.000506861  0.000143782      11.1219 
         550         1.92  0.000390363   0.00016319      11.1219 
         550      2.25333  0.000268876  0.000178875      11.1219 
         550      2.61333  0.000145779  0.000189703      11.1218 
         550            3  2.86046e-05  0.000194779      11.1218 
         600            0           -0           -0      9.91092 
         600     0.013333 -9.07325e-05  -1.3435e-10      9.91092 
         600     0.053333 -0.000352956 -1.40664e-07      9.91092 
         600         0.12 -0.000651531 -1.55675e-06      9.91092 
         600     0.213332 -0.000849636 -7.06934e-06      9.91092 
         600     0.333332 -0.000887949  -1.9868e-05      9.91092 
         600         0.48 -0.000816972 -4.12141e-05      9.91092 
         600     0.653331 -0.000728533 -6.98461e-05      9.91092 
         600     0.853332 -0.000673526 -0.000103137      9.91092 
         600         1.08 -0.000637474 -0.000137963      9.91092 
         600      1.33333 -0.000575146 -0.000171225      9.91092 
         600      1.61333 -0.000473387 -0.000201102      9.91092 
         600         1.92 -0.000360853   -0.0002271      9.91092 
         600      2.25333 -0.000245036 -0.000248197      9.91093 
         600      2.61333  -0.00012702 -0.000262931      9.91094 
         600            3   -1.272e-05 -0.000270045      9.91095 
         650            0            0            0      8.70139 
         650     0.013333   0.00010725 -1.50599e-08      8.70139 
         650     0.053333  0.000358785 -1.05162e-07      8.70139 
         650         0.12  0.000667073  3.25686e-07      8.70139 
         650     0.213332  0.000905864  3.39368e-06      8.70139 
         650     0.333332    0.0010057  1.18693e-05      8.70139 
         650         0.48  0.000993086  2.72261e-05      8.70139 
         650     0.653331  0.000943407  4.88745e-05      8.70139 
         650     0.853332  0.000907286  7.49004e-05      8.70139 
         650         1.08  0.000877095  0.000102517      8.70139 
         650      1.33333  0.000809516  0.000128766      8.70139 
         650      1.61333  0.000689821  0.000151719      8.70139 
         650         1.92  0.000550369  0.000171372      8.70138 
         650      2.25333  0.000403951   0.00018739      8.70138 
         650      2.61333  0.000253809  0.000198741      8.70137 
         650            3  0.000105527   0.00020451      8.70136 
         700            0            0            0      7.49128 
         700     0.013333  1.34531e-07  1.31494e-08      7.49128 
         700     0.053333 -3.39758e-05  1.80251e-07      7.49128 
         700         0.12 -8.45171e-05  7.19357e-07      7.49128 
         700     0.213332 -0.000142177  1.70221e-06      7.49128 
         700     0.333332  -0.00019653  3.06294e-06      7.49128 
         700         0.48  -0.00024187   4.6995e-06      7.49128 
         700     0.653331 -0.000277468  6.45458e-06      7.49128 
         700     0.853332 -0.000305163  8.18801e-06      7.49128 
         700         1.08 -0.000320918  1.01783e-05      7.49128 
         700      1.33333 -0.000309747  1.32662e-05      7.49128 
         700      1.61333 -0.000266908  1.80944e-05      7.49128 
         700         1.92 -0.000214705  2.37052e-05      7.49128 
         700      2.25333 -0.000162467  2.95026e-05      7.49128 
         700      2.61333 -0.000109716   3.4839e-05      7.49128 
         700            3 -5.66235e-05  3.92756e-05      7.49128 
         750            0           -0           -0      6.28174 
         750     0.013333   -3.948e-05  5.85031e-08      6.28174 
         750     0.053333  -0.00019085  8.21457e-07      6.28174 
         750         0.12 -0.000415919  3.31675e-06      6.28174 
         750     0.213332  -0.00064827  7.53786e-06      6.28174 
         750     0.333332  -0.00080927  1.18787e-05      6.28174 
         750         0.48 -0.000867366  1.42839e-05      6.28174 
         750     0.653331 -0.000850157  1.38745e-05      6.28174 
         750     0.853332 -0.000799089  1.13771e-05      6.28174 
         750         1.08 -0.000729038  8.35796e-06      6.28174 
         750      1.33333  -0.00063864  5.83609e-06      6.28174 
         750      1.61333 -0.000538504  3.56704e-06      6.28174 
         750         1.92 -0.000438567  9.41745e-07      6.28174 
         750      2.25333 -0.000332818 -2.02036e-06      6.28175 
         750      2.61333 -0.000220275 -4.98844e-06      6.28175 
         750            3 -0.000106288 -7.79371e-06      6.28176 
         800            0            0            0      5.07321 
         800     0.013333 -1.55813e-05 -9.82014e-08      5.07321 
         800     0.053333 -5.49218e-05 -1.49794e-06      5.07321 
         800         0.12 -2.05735e-05 -6.93286e-06      5.07321 
         800     0.213332  0.000124006 -1.90851e-05      5.07321 
         800     0.333332  0.000328379 -3.87201e-05      5.07321 
         800         0.48  0.000504312 -6.43564e-05      5.07321 
         800     0.653331  0.000599499 -9.38135e-05      5.07321 
         800     0.853332  0.000611969 -0.000125799      5.07321 
         800         1.08  0.000560634 -0.000159984      5.07321 
         800      1.33333  0.000472813 -0.000195642      5.07321 
         800      1.61333  0.000384535 -0.000230879      5.07321 
         800         1.92  0.000314045 -0.000263356      5.07321 
         800      2.25333  0.000245996 -0.000291421      5.07321 
         800      2.61333   0.00017263 -0.000313609       5.0732 
         800            3  9.74505e-05 -0.000328394       5.0732 
         850            0           -0           -0      3.86483 
         850     0.013333  0.000117205  2.72177e-08      3.86483 
         850     0.053333  0.000381155  5.33932e-07      3.86483 
         850         0.12  0.000668922  3.26422e-06      3.86483 
         850     0.213332  0.000834917  1.15006e-05      3.86484 
         850     0.333332  0.000825527  2.85012e-05      3.86484 
         850         0.48  0.000706017  5.52574e-05      3.86484 
         850     0.653331  0.000584191  9.00869e-05      3.86484 
         850     0.853332   0.00052084  0.000130088      3.86484 
         850         1.08  0.000504282   0.00017221      3.86484 
         850      1.33333  0.000481257  0.000213464      3.86484 
         850      1.61333  0.000418495  0.000251656      3.86484 
         850         1.92  0.000335634  0.000286099      3.86483 
         850      2.25333  0.000250599  0.000315943      3.86483 
         850      2.61333  0.000166295  0.000339787      3.86482 
         850            3  8.12099e-05  0.000355938      3.86482 
         900            0           -0           -0      2.65606 
         900     0.013333 -9.18855e-05    1.026e-07      2.65606 
         900     0.053333 -0.000394128  1.41879e-06      2.65606 
         900         0.12 -0.000836041  5.58779e-06      2.65606 
         900     0.213332  -0.00128436  1.22635e-05      2.65606 
         900     0.333332  -0.00159385  1.84022e-05      2.65606 
         900         0.48  -0.00171387  2.05215e-05      2.65606 
         900     0.653331  -0.00170279  1.74032e-05      2.65606 
         900     0.853332  -0.00164034  1.06784e-05      2.65606 
         900         1.08  -0.00154648  3.71113e-06      2.65606 
         900      1.33333  -0.00139262 -3.96998e-07      2.65606 
         900      1.61333   -0.0011822  -1.0919e-06      2.65606 
         900         1.92 -0.000967953 -7.82352e-07      2.65606 
         900      2.25333 -0.000755437 -4.18409e-07      2.65607 
         900      2.61333 -0.000536114 -3.67698e-07      2.65608 
         900            3  -0.00030991 -5.14631e-07      2.65609 
         950            0           -0           -0      1.44881 
         950     0.013333 -3.23369e-05  -7.5155e-08      1.44881 
         950     0.053333 -0.000125523  -1.1467e-06      1.44881 
         950         0.12  -0.00018456 -5.31348e-06      1.44881 
         950     0.213332 -0.000158571 -1.46933e-05      1.44881 
         950     0.333332 -6.40751e-05 -3.01184e-05      1.44881 
         950         0.48   4.4301e-05 -5.09471e-05      1.44881 
         950     0.653331   0.00012444 -7.61115e-05      1.44881 
         950     0.853332  0.000158662 -0.000105181      1.44881 
         950         1.08  0.000137909 -0.000138415      1.44881 
         950      1.33333  6.88313e-05 -0.000175449      1.44881 
         950      1.61333  -4.1527e-06 -0.000213869      1.44881 
         950         1.92 -3.38609e-05 -0.000250212      1.44881 
         950      2.25333 -3.88109e-05 -0.000282407      1.44881 
         950      2.61333 -3.88198e-05 -0.000309276      1.44881 
         950            3 -3.84894e-05 -0.000329644      1.44881 
        1000            0  3.71964e-21  -1.1405e-24     0.241287 
        1000     0.013333 -1.60525e-05 -1.03418e-08     0.241287 
        1000     0.053333 -8.74631e-05 -1.59184e-07     0.241287 
        1000         0.12  -0.00016831 -9.84951e-07     0.241287 
        1000     0.213332 -0.000219334 -3.65609e-06     0.241286 
        1000     0.333332 -0.000216101 -9.57845e-06     0.241286 
        1000         0.48 -0.000165669 -1.95127e-05     0.241286 
        1000     0.653331 -9.78633e-05 -3.31122e-05     0.241286 
        1000     0.853332 -3.98165e-05 -4.92442e-05     0.241286 
        1000         1.08  2.54489e-06 -6.65908e-05     0.241286 
        1000      1.33333  3.74017e-05 -8.42445e-05     0.241286 
        1000      1.61333    6.477e-05 -0.000102099     0.241287 
        1000         1.92  7.67243e-05 -0.000120399     0.241288 
        1000      2.25333  8.38575e-05  -0.00013834     0.241289 
        1000      2.61333  9.24943e-05 -0.000154949     0.241292 
        1000            3  0.000101491 -0.000169304     0.241295 
