Variables = x, y, u, v, p

Zone, I=416, F=POINT
         -50            0 -2.72208e-19 -3.46909e-23     -80.0244 
         -50     0.013333 -0.000239014 -5.61506e-08     -80.0244 
         -50     0.053333 -0.000212063  -2.1042e-08     -80.0243 
         -50         0.12   -0.0002068   4.7256e-07     -80.0243 
         -50     0.213332  -0.00021618  1.82364e-06     -80.0243 
         -50     0.333332 -0.000230009  4.04078e-06     -80.0242 
         -50         0.48 -0.000238694  6.79408e-06      -80.024 
         -50     0.653331 -0.000238591  9.87207e-06     -80.0238 
         -50     0.853332 -0.000233035  1.30043e-05     -80.0234 
         -50         1.08 -0.000227758  1.62832e-05     -80.0228 
         -50      1.33333 -0.000222846  1.84481e-05      -80.022 
         -50      1.61333 -0.000218151  1.91891e-05     -80.0209 
         -50         1.92 -0.000216389  1.93677e-05     -80.0195 
         -50      2.25333 -0.000218126  1.63782e-05     -80.0177 
         -50      2.61333 -0.000219879  1.18536e-05     -80.0154 
         -50            3 -0.000217572  1.07128e-05     -80.0126 
         -25            0           -0           -0     -76.8009 
         -25     0.013333 -0.000179248 -2.68528e-08     -76.8009 
         -25     0.053333 -0.000168034 -9.87205e-08     -76.8009 
         -25         0.12 -0.000166493 -2.85999e-07     -76.8009 
         -25     0.213332 -0.000165183 -6.88215e-07     -76.8009 
         -25     0.333332 -0.000162026 -1.34703e-06     -76.8009 
         -25         0.48 -0.000158626 -2.29996e-06     -76.8008 
         -25     0.653331 -0.000157255 -3.55251e-06     -76.8007 
         -25     0.853332 -0.000158153 -4.92722e-06     -76.8006 
         -25         1.08 -0.000160256 -6.26258e-06     -76.8003 
         -25      1.33333  -0.00016219 -7.44611e-06        -76.8 
         -25      1.61333 -0.000162295 -8.80748e-06     -76.7996 
         -25         1.92 -0.000159973  -8.3977e-06     -76.7991 
         -25      2.25333 -0.000164767 -1.15222e-05     -76.7984 
         -25      2.61333  -0.00017608 -1.45254e-05     -76.7975 
         -25            3 -0.000179023 -6.90589e-06     -76.7964 
           0            0            0            0     -74.1381 
           0     0.013333 -0.000475908  0.000324236     -74.1416 
           0     0.053333 -0.000287461   0.00016559     -74.1471 
           0         0.12 -0.000217177  0.000114692     -74.1535 
           0     0.213332 -0.000197061  8.94738e-05     -74.1603 
           0     0.333332 -0.000194474  7.47379e-05     -74.1673 
           0         0.48 -0.000190707  6.49333e-05     -74.1745 
           0     0.653331 -0.000182605   5.8364e-05     -74.1817 
           0     0.853332 -0.000172019  5.38108e-05     -74.1887 
           0         1.08 -0.000162093  5.04504e-05     -74.1957 
           0      1.33333 -0.000154521  4.77042e-05     -74.2023 
           0      1.61333 -0.000150092   4.4941e-05     -74.2087 
           0         1.92 -0.000149973  4.18716e-05     -74.2148 
           0      2.25333 -0.000149589  3.88755e-05     -74.2205 
           0      2.61333 -0.000142557  3.61527e-05     -74.2257 
           0            3 -0.000133652   3.3294e-05     -74.2306 
          20            0            0            0     -72.5344 
          20     0.013333 -0.000117479 -1.95975e-09     -72.5344 
          20     0.053333 -5.53757e-05  2.03467e-07     -72.5344 
          20         0.12 -5.64874e-06  1.32408e-06     -72.5344 
          20     0.213332  1.50665e-05   4.3488e-06     -72.5344 
          20     0.333332  1.43093e-05   9.7709e-06     -72.5344 
          20         0.48  8.61391e-06  1.72431e-05     -72.5343 
          20     0.653331  3.27441e-06  2.59673e-05     -72.5343 
          20     0.853332 -2.39222e-06  3.52758e-05     -72.5342 
          20         1.08 -1.53062e-05  4.41611e-05     -72.5341 
          20      1.33333 -4.04166e-05   5.1139e-05     -72.5339 
          20      1.61333 -7.25306e-05  5.55766e-05     -72.5337 
          20         1.92  -0.00010564  5.67804e-05     -72.5334 
          20      2.25333  -0.00013022  5.52938e-05      -72.533 
          20      2.61333 -0.000150123  5.01041e-05     -72.5325 
          20            3 -0.000171676  4.02493e-05     -72.5319 
          40            0            0            0     -70.8585 
          40     0.013333 -0.000133081   4.8287e-09     -70.8585 
          40     0.053333 -0.000133323  1.08763e-07     -70.8585 
          40         0.12 -0.000142808  3.53846e-07     -70.8585 
          40     0.213332 -0.000146776  4.56357e-07     -70.8585 
          40     0.333332 -0.000140659  2.52755e-08     -70.8585 
          40         0.48 -0.000130376 -9.40204e-07     -70.8585 
          40     0.653331 -0.000120609 -2.00928e-06     -70.8585 
          40     0.853332 -0.000110692 -2.80933e-06     -70.8585 
          40         1.08 -0.000103306 -3.53687e-06     -70.8584 
          40      1.33333 -0.000100786 -4.50017e-06     -70.8584 
          40      1.61333 -0.000100148 -5.59338e-06     -70.8583 
          40         1.92 -0.000101585   -6.636e-06     -70.8582 
          40      2.25333 -0.000103475 -7.50378e-06      -70.858 
          40      2.61333 -0.000104106 -7.89637e-06     -70.8578 
          40            3 -0.000104358 -7.96946e-06     -70.8576 
          60            0           -0           -0     -69.2691 
          60     0.013333 -0.000140395 -8.95381e-09     -69.2691 
          60     0.053333  -0.00016814  -1.4356e-07     -69.2691 
          60         0.12 -0.000199549 -8.96505e-07     -69.2691 
          60     0.213332 -0.000209477 -3.08036e-06     -69.2691 
          60     0.333332 -0.000199624 -7.19124e-06     -69.2691 
          60         0.48 -0.000187639 -1.30349e-05     -69.2691 
          60     0.653331 -0.000184515 -1.99455e-05     -69.2691 
          60     0.853332 -0.000182944 -2.68304e-05      -69.269 
          60         1.08 -0.000170105  -3.2625e-05      -69.269 
          60      1.33333 -0.000150457 -3.70072e-05      -69.269 
          60      1.61333 -0.000130225 -4.01392e-05     -69.2689 
          60         1.92 -0.000110486 -4.12878e-05     -69.2689 
          60      2.25333  -9.5262e-05 -4.07824e-05     -69.2688 
          60      2.61333 -8.77672e-05 -3.86161e-05     -69.2687 
          60            3 -8.49649e-05 -3.35504e-05     -69.2685 
          80            0           -0           -0     -67.7289 
          80     0.013333 -0.000130119 -1.12591e-08     -67.7289 
          80     0.053333 -0.000140583 -1.62777e-07     -67.7289 
          80         0.12 -0.000155945 -8.08946e-07     -67.7289 
          80     0.213332   -0.0001632 -2.33904e-06     -67.7289 
          80     0.333332 -0.000164354 -4.85597e-06     -67.7289 
          80         0.48 -0.000166731 -8.19971e-06     -67.7289 
          80     0.653331  -0.00017371 -1.21337e-05     -67.7289 
          80     0.853332  -0.00017946 -1.61473e-05     -67.7289 
          80         1.08 -0.000173203  -1.9426e-05     -67.7289 
          80      1.33333 -0.000157534 -2.16172e-05     -67.7289 
          80      1.61333 -0.000140986 -2.29637e-05     -67.7288 
          80         1.92  -0.00012315 -2.32074e-05     -67.7288 
          80      2.25333 -0.000106809 -2.23301e-05     -67.7287 
          80      2.61333  -9.0347e-05  -2.0186e-05     -67.7287 
          80            3 -7.36268e-05 -1.73482e-05     -67.7286 
         100            0            0            0     -66.2198 
         100     0.013333 -0.000112324 -2.86399e-08     -66.2198 
         100     0.053333 -7.86976e-05 -3.95091e-07     -66.2198 
         100         0.12  -3.5497e-05 -1.62263e-06     -66.2198 
         100     0.213332  6.57059e-06 -3.78392e-06     -66.2198 
         100     0.333332  2.96083e-05 -6.25616e-06     -66.2198 
         100         0.48   3.0043e-05 -8.32993e-06     -66.2198 
         100     0.653331  1.64046e-05 -9.81534e-06     -66.2197 
         100     0.853332 -3.61515e-06 -1.08699e-05     -66.2197 
         100         1.08 -2.49694e-05 -1.14297e-05     -66.2197 
         100      1.33333 -4.61469e-05 -1.13752e-05     -66.2197 
         100      1.61333 -6.94794e-05 -1.07381e-05     -66.2197 
         100         1.92 -9.31456e-05 -9.57342e-06     -66.2197 
         100      2.25333  -0.00011309 -8.00632e-06     -66.2196 
         100      2.61333 -0.000126612 -6.06997e-06     -66.2196 
         100            3 -0.000131719 -3.78471e-06     -66.2195 
         150            0           -0           -0     -62.5193 
         150     0.013333 -9.42238e-05 -2.29952e-08     -62.5193 
         150     0.053333 -2.23847e-05 -2.85979e-07     -62.5193 
         150         0.12  6.13581e-05 -9.49679e-07     -62.5193 
         150     0.213332  0.000130653 -1.55678e-06     -62.5193 
         150     0.333332  0.000168879 -1.26124e-06     -62.5193 
         150         0.48  0.000182219  4.16369e-07     -62.5193 
         150     0.653331  0.000183093  3.22513e-06     -62.5193 
         150     0.853332  0.000170782  6.26723e-06     -62.5193 
         150         1.08  0.000136067   8.5817e-06     -62.5193 
         150      1.33333  8.39551e-05  9.87334e-06     -62.5192 
         150      1.61333  2.63377e-05  1.06071e-05     -62.5192 
         150         1.92 -3.53426e-05  1.07752e-05     -62.5192 
         150      2.25333 -9.02534e-05  1.02914e-05     -62.5192 
         150      2.61333 -0.000135019  9.36619e-06     -62.5192 
         150            3 -0.000168269  8.38921e-06     -62.5192 
         200            0 -2.66241e-19 -1.47572e-25     -58.8647 
         200     0.013333 -0.000123208  1.57445e-08     -58.8647 
         200     0.053333 -0.000135421  2.14341e-07     -58.8647 
         200         0.12 -0.000164688  8.12322e-07     -58.8647 
         200     0.213332 -0.000193894  1.69741e-06     -58.8647 
         200     0.333332 -0.000211076  2.46131e-06     -58.8647 
         200         0.48 -0.000216285  2.85707e-06     -58.8647 
         200     0.653331 -0.000214321  3.06671e-06     -58.8647 
         200     0.853332 -0.000204878  3.51978e-06     -58.8647 
         200         1.08 -0.000187636  4.37304e-06     -58.8647 
         200      1.33333 -0.000168882  5.34568e-06     -58.8647 
         200      1.61333 -0.000151518  6.11663e-06     -58.8647 
         200         1.92 -0.000133265   6.6577e-06     -58.8647 
         200      2.25333 -0.000116853   6.9503e-06     -58.8647 
         200      2.61333  -0.00010282  6.97888e-06     -58.8647 
         200            3 -9.12654e-05  6.74103e-06     -58.8647 
         250            0           -0           -0     -55.2256 
         250     0.013333 -0.000142296 -1.79993e-08     -55.2256 
         250     0.053333 -0.000194501 -3.16464e-07     -55.2256 
         250         0.12 -0.000246936 -1.71992e-06     -55.2256 
         250     0.213332 -0.000261324 -5.43208e-06     -55.2256 
         250     0.333332 -0.000237928 -1.22364e-05     -55.2256 
         250         0.48 -0.000204138 -2.19729e-05     -55.2256 
         250     0.653331 -0.000183698 -3.38904e-05     -55.2256 
         250     0.853332 -0.000179982 -4.70413e-05     -55.2256 
         250         1.08 -0.000178666 -6.02424e-05     -55.2256 
         250      1.33333 -0.000166649 -7.22811e-05     -55.2256 
         250      1.61333 -0.000147959 -8.24911e-05     -55.2256 
         250         1.92 -0.000129925 -9.01652e-05     -55.2256 
         250      2.25333 -0.000113699 -9.45635e-05     -55.2256 
         250      2.61333 -0.000100662 -9.54596e-05     -55.2256 
         250            3 -9.01895e-05  -9.2777e-05     -55.2256 
         300            0           -0           -0     -51.5918 
         300     0.013333   -0.0001449  1.20375e-08     -51.5918 
         300     0.053333 -0.000211219  1.17755e-07     -51.5918 
         300         0.12 -0.000295992   1.2465e-07     -51.5918 
         300     0.213332 -0.000352024 -8.87073e-07     -51.5918 
         300     0.333332 -0.000360765 -4.06005e-06     -51.5918 
         300         0.48 -0.000340233 -9.76004e-06     -51.5918 
         300     0.653331 -0.000316667 -1.73349e-05     -51.5918 
         300     0.853332  -0.00029681 -2.55953e-05     -51.5918 
         300         1.08  -0.00027078 -3.34004e-05     -51.5918 
         300      1.33333 -0.000234805 -4.01474e-05     -51.5918 
         300      1.61333 -0.000196334 -4.58561e-05     -51.5918 
         300         1.92 -0.000157667 -5.02955e-05     -51.5918 
         300      2.25333 -0.000121263 -5.30106e-05     -51.5918 
         300      2.61333 -8.93224e-05  -5.3837e-05     -51.5918 
         300            3 -6.32248e-05 -5.27091e-05     -51.5918 
         350            0           -0           -0     -47.9597 
         350     0.013333 -0.000128276  5.83968e-08     -47.9597 
         350     0.053333 -0.000166583  8.37721e-07     -47.9597 
         350         0.12 -0.000255587  3.52617e-06     -47.9597 
         350     0.213332 -0.000368131  8.62963e-06     -47.9597 
         350     0.333332 -0.000461499  1.54352e-05     -47.9597 
         350         0.48 -0.000513011  2.28023e-05     -47.9597 
         350     0.653331 -0.000527277  3.02523e-05     -47.9597 
         350     0.853332 -0.000511446   3.8223e-05     -47.9597 
         350         1.08 -0.000464868  4.73433e-05     -47.9597 
         350      1.33333 -0.000398236  5.72736e-05     -47.9597 
         350      1.61333 -0.000330838  6.66305e-05     -47.9597 
         350         1.92 -0.000260968  7.43506e-05     -47.9597 
         350      2.25333 -0.000190758  7.99067e-05     -47.9597 
         350      2.61333 -0.000124892  8.28148e-05     -47.9597 
         350            3 -6.92475e-05  8.28106e-05     -47.9596 
         400            0           -0           -0     -44.3279 
         400     0.013333 -0.000113925  2.25522e-08     -44.3279 
         400     0.053333 -0.000106603  3.42158e-07     -44.3279 
         400         0.12 -0.000122418  1.55123e-06     -44.3279 
         400     0.213332 -0.000154963  4.08911e-06     -44.3279 
         400     0.333332 -0.000184473  7.77425e-06     -44.3279 
         400         0.48 -0.000194572  1.19701e-05     -44.3279 
         400     0.653331 -0.000184617  1.61909e-05     -44.3279 
         400     0.853332 -0.000163309  2.02808e-05     -44.3279 
         400         1.08 -0.000142141   2.3984e-05     -44.3279 
         400      1.33333 -0.000130383  2.68349e-05     -44.3279 
         400      1.61333 -0.000125332  2.86318e-05     -44.3279 
         400         1.92 -0.000118495  2.94982e-05     -44.3279 
         400      2.25333 -0.000110771  2.93798e-05     -44.3279 
         400      2.61333 -0.000103073  2.82554e-05     -44.3279 
         400            3  -9.4831e-05  2.62316e-05     -44.3279 
         450            0 -1.17839e-19  2.33369e-27     -40.6961 
         450     0.013333  -8.1022e-05  -1.4152e-09     -40.6961 
         450     0.053333  1.75742e-05  3.05336e-08     -40.6961 
         450         0.12  0.000123146   4.7089e-07     -40.6961 
         450     0.213332  0.000195622  2.26257e-06     -40.6961 
         450     0.333332  0.000218988  6.41554e-06     -40.6961 
         450         0.48   0.00021067  1.32792e-05     -40.6961 
         450     0.653331   0.00019794  2.24588e-05     -40.6961 
         450     0.853332  0.000192965   3.3119e-05     -40.6961 
         450         1.08  0.000184462  4.40081e-05     -40.6961 
         450      1.33333  0.000154218  5.38043e-05     -40.6961 
         450      1.61333  0.000105563  6.20441e-05     -40.6961 
         450         1.92  5.31037e-05  6.87095e-05     -40.6961 
         450      2.25333  -8.4464e-07    7.353e-05     -40.6961 
         450      2.61333 -5.43271e-05  7.60375e-05     -40.6961 
         450            3 -0.000103351  7.59591e-05     -40.6961 
         500            0            0            0     -37.0641 
         500     0.013333 -0.000132347 -1.11647e-08     -37.0641 
         500     0.053333 -0.000161131 -1.94174e-07     -37.0641 
         500         0.12 -0.000190895 -1.05552e-06     -37.0641 
         500     0.213332 -0.000192777 -3.38858e-06     -37.0641 
         500     0.333332 -0.000164044  -7.8175e-06     -37.0641 
         500         0.48 -0.000124345 -1.43167e-05     -37.0641 
         500     0.653331 -9.38537e-05 -2.22672e-05     -37.0641 
         500     0.853332  -7.8096e-05 -3.09247e-05     -37.0641 
         500         1.08  -7.2582e-05 -3.97813e-05     -37.0641 
         500      1.33333 -7.22796e-05  -4.8513e-05     -37.0641 
         500      1.61333 -7.32927e-05  -5.6721e-05     -37.0641 
         500         1.92 -7.45131e-05 -6.38812e-05     -37.0641 
         500      2.25333 -7.63415e-05 -6.94495e-05     -37.0641 
         500      2.61333 -7.92667e-05 -7.30592e-05     -37.0641 
         500            3  -8.3706e-05 -7.44415e-05     -37.0641 
         550            0           -0           -0     -33.4316 
         550     0.013333 -7.16751e-05  6.74893e-08     -33.4316 
         550     0.053333  3.02041e-05  1.07195e-06     -33.4316 
         550         0.12  8.68147e-05  5.21952e-06     -33.4316 
         550     0.213332  4.65224e-05  1.50786e-05     -33.4316 
         550     0.333332 -6.52094e-05   3.1826e-05     -33.4316 
         550         0.48 -0.000176126  5.45289e-05     -33.4316 
         550     0.653331 -0.000234103  8.13158e-05     -33.4316 
         550     0.853332 -0.000231491  0.000110656     -33.4316 
         550         1.08 -0.000193842  0.000141111     -33.4316 
         550      1.33333 -0.000161037  0.000170673     -33.4316 
         550      1.61333 -0.000150625  0.000197513     -33.4316 
         550         1.92 -0.000144633  0.000220626     -33.4316 
         550      2.25333 -0.000136164  0.000238737     -33.4316 
         550      2.61333 -0.000125536  0.000250508     -33.4316 
         550            3 -0.000114121  0.000254881     -33.4316 
         600            0           -0           -0     -29.7986 
         600     0.013333 -0.000138503 -9.34213e-08     -29.7986 
         600     0.053333 -0.000159216 -1.41647e-06     -29.7986 
         600         0.12 -0.000121749 -6.48848e-06     -29.7986 
         600     0.213332  5.55675e-06 -1.76185e-05     -29.7986 
         600     0.333332  0.000175343 -3.52239e-05     -29.7986 
         600         0.48  0.000315006 -5.78199e-05     -29.7986 
         600     0.653331  0.000387065 -8.36355e-05     -29.7986 
         600     0.853332  0.000390771  -0.00011193     -29.7986 
         600         1.08  0.000337305 -0.000142572     -29.7986 
         600      1.33333  0.000254903 -0.000174436     -29.7986 
         600      1.61333   0.00018345 -0.000204846     -29.7986 
         600         1.92  0.000123834 -0.000231472     -29.7986 
         600      2.25333  6.25313e-05 -0.000253126     -29.7986 
         600      2.61333 -2.78118e-06 -0.000268227     -29.7986 
         600            3  -6.6632e-05 -0.000275466     -29.7986 
         650            0            0            0     -26.1655 
         650     0.013333 -3.32451e-05   2.0801e-09     -26.1655 
         650     0.053333  0.000190125  1.16687e-07     -26.1655 
         650         0.12  0.000445827  1.11782e-06     -26.1655 
         650     0.213332  0.000629986  4.96501e-06     -26.1655 
         650     0.333332  0.000685759  1.41278e-05     -26.1655 
         650         0.48  0.000637447  3.00421e-05     -26.1655 
         650     0.653331  0.000553027  5.23494e-05     -26.1655 
         650     0.853332  0.000483608  7.94763e-05     -26.1655 
         650         1.08  0.000437327   0.00010949     -26.1655 
         650      1.33333  0.000393645  0.000140482     -26.1655 
         650      1.61333  0.000332205  0.000170759     -26.1655 
         650         1.92  0.000250912  0.000198761     -26.1655 
         650      2.25333  0.000158098  0.000222831     -26.1655 
         650      2.61333  6.03949e-05  0.000241594     -26.1655 
         650            3 -3.67132e-05  0.000253801     -26.1655 
         700            0            0            0     -22.5328 
         700     0.013333 -0.000141278  7.75717e-08     -22.5328 
         700     0.053333 -0.000221966  1.12335e-06     -22.5328 
         700         0.12 -0.000387611  4.81385e-06     -22.5328 
         700     0.213332 -0.000603199  1.20934e-05     -22.5328 
         700     0.333332 -0.000801813  2.23007e-05     -22.5328 
         700         0.48 -0.000935029   3.3856e-05     -22.5328 
         700     0.653331 -0.000999932  4.56307e-05     -22.5328 
         700     0.853332  -0.00101379   5.7686e-05     -22.5328 
         700         1.08 -0.000979215  7.11109e-05     -22.5328 
         700      1.33333 -0.000890117  8.68061e-05     -22.5328 
         700      1.61333 -0.000766679  0.000104007     -22.5328 
         700         1.92  -0.00064086  0.000120768     -22.5328 
         700      2.25333 -0.000511723  0.000135574     -22.5328 
         700      2.61333 -0.000376229  0.000147604     -22.5328 
         700            3 -0.000240491  0.000156137     -22.5327 
         750            0           -0           -0     -18.8993 
         750     0.013333 -0.000160889  2.11382e-08     -18.8993 
         750     0.053333 -0.000276401  2.77759e-07     -18.8993 
         750         0.12 -0.000444327  9.78687e-07     -18.8993 
         750     0.213332 -0.000603873  1.67174e-06     -18.8993 
         750     0.333332 -0.000703728  1.13902e-06     -18.8993 
         750         0.48 -0.000731927 -1.85122e-06     -18.8993 
         750     0.653331 -0.000713824 -7.70276e-06     -18.8993 
         750     0.853332 -0.000679852 -1.58889e-05     -18.8993 
         750         1.08 -0.000641906 -2.54459e-05     -18.8993 
         750      1.33333 -0.000597203 -3.55701e-05     -18.8993 
         750      1.61333  -0.00054166 -4.57419e-05     -18.8993 
         750         1.92 -0.000472808 -5.53637e-05     -18.8993 
         750      2.25333 -0.000393077 -6.41074e-05     -18.8993 
         750      2.61333 -0.000306983 -7.13492e-05     -18.8993 
         750            3 -0.000218874 -7.65944e-05     -18.8993 
         800            0            0            0     -15.2653 
         800     0.013333 -0.000125816 -5.61148e-08     -15.2653 
         800     0.053333 -0.000125046 -8.43916e-07     -15.2653 
         800         0.12 -9.06453e-05 -3.82522e-06     -15.2653 
         800     0.213332 -5.68409e-06 -1.02792e-05     -15.2653 
         800     0.333332  0.000100802 -2.03672e-05     -15.2653 
         800         0.48  0.000186441  -3.3196e-05     -15.2653 
         800     0.653331  0.000230394 -4.77841e-05     -15.2653 
         800     0.853332  0.000233567 -6.38183e-05     -15.2653 
         800         1.08  0.000201276 -8.14986e-05     -15.2653 
         800      1.33333   0.00014497 -0.000100553     -15.2653 
         800      1.61333  8.90018e-05 -0.000119696     -15.2653 
         800         1.92  4.77625e-05 -0.000137336     -15.2653 
         800      2.25333  1.02002e-05 -0.000152662     -15.2653 
         800      2.61333  -2.9427e-05 -0.000164838     -15.2653 
         800            3 -6.90108e-05 -0.000173056     -15.2653 
         850            0           -0           -0     -11.6311 
         850     0.013333 -9.68469e-05  1.20202e-08     -11.6311 
         850     0.053333 -4.12226e-05  1.97021e-07     -11.6311 
         850         0.12  8.32158e-06  1.00051e-06     -11.6311 
         850     0.213332  3.34568e-05  3.02608e-06     -11.6311 
         850     0.333332  3.16799e-05  6.69199e-06     -11.6311 
         850         0.48  1.64292e-05  1.19988e-05     -11.6311 
         850     0.653331  2.98831e-06  1.86722e-05     -11.6311 
         850     0.853332 -3.50313e-07  2.64429e-05     -11.6311 
         850         1.08  6.81011e-06  3.50761e-05     -11.6311 
         850      1.33333  1.59734e-05  4.40822e-05     -11.6311 
         850      1.61333  1.38113e-05  5.26812e-05     -11.6311 
         850         1.92 -2.01206e-06  6.01251e-05     -11.6311 
         850      2.25333 -2.25759e-05  6.64208e-05     -11.6311 
         850      2.61333 -4.35612e-05  7.12498e-05     -11.6311 
         850            3 -6.47661e-05  7.42574e-05     -11.6311 
         900            0           -0           -0     -7.99676 
         900     0.013333 -0.000119491  1.60417e-09     -7.99676 
         900     0.053333 -0.000119726  1.93207e-08     -7.99676 
         900         0.12  -0.00013001  5.71375e-08     -7.99676 
         900     0.213332 -0.000141047  6.24076e-08     -7.99676 
         900     0.333332 -0.000147885 -5.33225e-08     -7.99676 
         900         0.48 -0.000150054 -3.45973e-07     -7.99676 
         900     0.653331 -0.000150008 -8.08914e-07     -7.99676 
         900     0.853332  -0.00014988 -1.39256e-06     -7.99676 
         900         1.08 -0.000149944 -2.01951e-06     -7.99676 
         900      1.33333 -0.000148367  -2.5675e-06     -7.99676 
         900      1.61333 -0.000143109 -2.91634e-06     -7.99676 
         900         1.92 -0.000135422  -3.0872e-06     -7.99676 
         900      2.25333 -0.000127858 -3.03157e-06     -7.99676 
         900      2.61333 -0.000121303 -2.91256e-06     -7.99676 
         900            3 -0.000115093 -2.77467e-06     -7.99676 
         950            0           -0           -0     -4.36208 
         950     0.013333 -0.000115794  -4.7787e-10     -4.36208 
         950     0.053333 -0.000105782 -6.91417e-09     -4.36208 
         950         0.12 -0.000102456 -2.90351e-08     -4.36208 
         950     0.213332 -0.000101273 -7.09591e-08     -4.36208 
         950     0.333332 -0.000100741 -1.27727e-07     -4.36208 
         950         0.48  -0.00010034  -1.9202e-07     -4.36208 
         950     0.653331 -0.000100087 -2.62985e-07     -4.36208 
         950     0.853332 -9.99129e-05 -3.36487e-07     -4.36208 
         950         1.08 -9.97956e-05  -4.3248e-07     -4.36208 
         950      1.33333  -9.9903e-05 -5.50485e-07     -4.36208 
         950      1.61333 -0.000100433   -6.756e-07     -4.36208 
         950         1.92 -0.000100931 -8.94057e-07     -4.36208 
         950      2.25333 -0.000101545   -1.037e-06     -4.36208 
         950      2.61333 -0.000102414 -1.15772e-06     -4.36208 
         950            3 -0.000103695 -1.31012e-06     -4.36209 
        1000            0 -1.30579e-19  7.50018e-28    -0.727037 
        1000     0.013333 -0.000115887  4.09368e-11    -0.727037 
        1000     0.053333 -0.000106206  6.28378e-10    -0.727037 
        1000         0.12 -0.000103596  2.82074e-09    -0.727037 
        1000     0.213332 -0.000103341  7.02554e-09    -0.727037 
        1000     0.333332 -0.000103587  1.25945e-08    -0.727037 
        1000         0.48 -0.000103632  1.89615e-08    -0.727037 
        1000     0.653331 -0.000103569    2.557e-08    -0.727037 
        1000     0.853332  -0.00010347  3.43171e-08    -0.727037 
        1000         1.08 -0.000103317  4.37906e-08    -0.727037 
        1000      1.33333 -0.000103072  5.89838e-08    -0.727037 
        1000      1.61333 -0.000102714  6.96549e-08    -0.727037 
        1000         1.92 -0.000102301  9.60222e-08    -0.727037 
        1000      2.25333 -0.000102015  1.07846e-07    -0.727037 
        1000      2.61333  -0.00010197  1.08721e-07    -0.727037 
        1000            3 -0.000102311  1.15764e-07    -0.727037 
