Variables = x, y, u, v, p

Zone, I=416, F=POINT
         -50            0            0            0      140.103 
         -50     0.013333  0.000256724  5.35725e-08      140.103 
         -50     0.053333  0.000250315  2.45811e-07      140.103 
         -50         0.12  0.000246542  7.53441e-07      140.103 
         -50     0.213332  0.000241656  1.71939e-06      140.103 
         -50     0.333332  0.000236167  3.08695e-06      140.103 
         -50         0.48  0.000231781  4.40336e-06      140.103 
         -50     0.653331   0.00023064  6.49365e-06      140.103 
         -50     0.853332  0.000232097  8.28787e-06      140.103 
         -50         1.08  0.000232572  1.00927e-05      140.102 
         -50      1.33333  0.000233136  1.14234e-05      140.102 
         -50      1.61333  0.000234634  1.21629e-05      140.101 
         -50         1.92  0.000233343  1.21462e-05        140.1 
         -50      2.25333  0.000233794  1.24255e-05      140.099 
         -50      2.61333  0.000237812  1.44433e-05      140.097 
         -50            3  0.000241763  1.71114e-05      140.095 
         -25            0           -0           -0      136.314 
         -25     0.013333  0.000216752  9.81731e-09      136.314 
         -25     0.053333  0.000207905   1.2265e-08      136.314 
         -25         0.12  0.000205836 -4.38809e-08      136.314 
         -25     0.213332   0.00020934 -2.25839e-07      136.314 
         -25     0.333332  0.000215602 -5.69082e-07      136.314 
         -25         0.48  0.000221289 -1.07108e-06      136.314 
         -25     0.653331  0.000224581 -1.75466e-06      136.314 
         -25     0.853332  0.000224561 -2.47926e-06      136.314 
         -25         1.08  0.000222476  -3.1802e-06      136.314 
         -25      1.33333  0.000220379 -3.74604e-06      136.313 
         -25      1.61333  0.000219156 -4.24202e-06      136.313 
         -25         1.92  0.000221981 -3.30016e-06      136.313 
         -25      2.25333  0.000217185 -4.17504e-06      136.313 
         -25      2.61333  0.000206129 -4.31794e-06      136.312 
         -25            3  0.000200812  1.03057e-06      136.312 
           0            0            0            0      132.683 
           0     0.013333  0.000642876 -0.000418103      132.688 
           0     0.053333  0.000421149 -0.000224154      132.695 
           0         0.12  0.000328953 -0.000157254      132.704 
           0     0.213332   0.00029447 -0.000123099      132.713 
           0     0.333332   0.00028247 -0.000102874      132.722 
           0         0.48  0.000272317 -8.91368e-05      132.732 
           0     0.653331  0.000260528  -7.9765e-05      132.741 
           0     0.853332  0.000247241 -7.32784e-05      132.751 
           0         1.08  0.000235665 -6.86033e-05       132.76 
           0      1.33333  0.000227144 -6.49017e-05      132.769 
           0      1.61333  0.000219282 -6.16062e-05      132.778 
           0         1.92  0.000212041   -5.771e-05      132.787 
           0      2.25333  0.000207627 -5.33485e-05      132.795 
           0      2.61333  0.000206694 -4.81608e-05      132.803 
           0            3  0.000204593 -4.54051e-05      132.811 
          20            0 -0.000117978  0.000209168      130.393 
          20     0.013333  -0.00012105  0.000209605      130.393 
          20     0.053333 -0.000131142  0.000210694      130.393 
          20         0.12 -0.000150952  0.000211713      130.393 
          20     0.213332  -0.00018442  0.000211368      130.393 
          20     0.333332 -0.000234298  0.000207914      130.393 
          20         0.48 -0.000296186  0.000199637      130.393 
          20     0.653331 -0.000339458  0.000186732      130.392 
          20     0.853332  -0.00033122  0.000171018      130.392 
          20         1.08 -0.000256219  0.000154666      130.392 
          20      1.33333 -0.000128036   0.00013873      130.391 
          20      1.61333  1.94542e-05  0.000122642      130.391 
          20         1.92  0.000156804  0.000106961       130.39 
          20      2.25333  0.000265378  9.14977e-05       130.39 
          20      2.61333  0.000330417  7.76882e-05      130.389 
          20            3  0.000361073  6.62232e-05      130.388 
          40            0  5.07004e-19  2.18581e-23      127.854 
          40     0.013333  0.000267305  4.33947e-07      127.854 
          40     0.053333  0.000302172  6.30489e-06      127.854 
          40         0.12  0.000118776  2.81547e-05      127.854 
          40     0.213332 -0.000225738   7.3615e-05      127.854 
          40     0.333332 -0.000455665  0.000141903      127.854 
          40         0.48 -0.000474343  0.000225627      127.854 
          40     0.653331 -0.000506708  0.000311329      127.854 
          40     0.853332 -0.000600339  0.000393127      127.853 
          40         1.08 -0.000503038  0.000476076      127.853 
          40      1.33333 -0.000282102  0.000549299      127.853 
          40      1.61333 -5.76856e-05  0.000596133      127.853 
          40         1.92  0.000136255  0.000609733      127.852 
          40      2.25333  0.000278699  0.000591324      127.852 
          40      2.61333  0.000366739  0.000548773      127.851 
          40            3  0.000410054  0.000492246       127.85 
          60            0            0            0      125.218 
          60     0.013333  1.18689e-05  7.69011e-07      125.218 
          60     0.053333 -0.000629161  1.05413e-05      125.218 
          60         0.12  -0.00164267    4.082e-05      125.218 
          60     0.213332  -0.00257958  8.78514e-05      125.218 
          60     0.333332  -0.00304573     0.000133      125.218 
          60         0.48  -0.00310191  0.000165672      125.218 
          60     0.653331  -0.00291739  0.000198902      125.218 
          60     0.853332  -0.00246674  0.000255254      125.218 
          60         1.08  -0.00185319  0.000330428      125.218 
          60      1.33333  -0.00124828  0.000399495      125.218 
          60      1.61333 -0.000631692  0.000444686      125.218 
          60         1.92  4.01803e-05   0.00046043      125.218 
          60      2.25333  0.000549694  0.000448106      125.218 
          60      2.61333  0.000858415   0.00041202      125.218 
          60            3   0.00101981  0.000362379      125.218 
          80            0            0            0      122.624 
          80     0.013333 -6.78527e-06  8.16773e-07      122.624 
          80     0.053333 -0.000712882  1.12989e-05      122.624 
          80         0.12  -0.00187469  4.46584e-05      122.624 
          80     0.213332  -0.00306726  9.99143e-05      122.624 
          80     0.333332  -0.00384051  0.000160246      122.624 
          80         0.48  -0.00413843  0.000212523      122.624 
          80     0.653331  -0.00404522  0.000263778      122.624 
          80     0.853332  -0.00342382  0.000337486      122.624 
          80         1.08  -0.00233165  0.000440895      122.624 
          80      1.33333  -0.00135354  0.000547261      122.624 
          80      1.61333 -0.000670515  0.000626719      122.624 
          80         1.92  3.71583e-05  0.000672901      122.624 
          80      2.25333  0.000596161  0.000684393      122.624 
          80      2.61333  0.000964284  0.000663117      122.624 
          80            3   0.00117614  0.000619209      122.624 
         100            0           -0           -0      120.041 
         100     0.013333  0.000156543  6.46652e-07      120.041 
         100     0.053333 -9.15569e-05  9.15401e-06      120.041 
         100         0.12 -0.000649186  3.76666e-05      120.041 
         100     0.213332  -0.00134027  8.96315e-05      120.041 
         100     0.333332  -0.00186241  0.000156823      120.041 
         100         0.48  -0.00207835  0.000231694      120.041 
         100     0.653331   -0.0019374  0.000317604      120.041 
         100     0.853332  -0.00140506  0.000421338      120.041 
         100         1.08 -0.000774681  0.000530778      120.041 
         100      1.33333 -0.000418386  0.000622426      120.041 
         100      1.61333 -0.000182488  0.000687119      120.041 
         100         1.92  0.000148661  0.000723324      120.041 
         100      2.25333  0.000415174  0.000728741      120.041 
         100      2.61333  0.000583697  0.000704817      120.041 
         100            3   0.00068649  0.000658961      120.041 
         150            0           -0           -0      113.595 
         150     0.013333  0.000225271 -8.01133e-07      113.595 
         150     0.053333  0.000493518 -1.18201e-05      113.595 
         150         0.12   0.00127282 -5.15271e-05      113.595 
         150     0.213332    0.0023826 -0.000130255      113.595 
         150     0.333332   0.00329767 -0.000239014      113.595 
         150         0.48    0.0036912 -0.000360031      113.595 
         150     0.653331   0.00359275 -0.000483596      113.595 
         150     0.853332   0.00315618  -0.00060778      113.595 
         150         1.08   0.00257928 -0.000725331      113.595 
         150      1.33333   0.00202416 -0.000824512      113.595 
         150      1.61333   0.00147607 -0.000896401      113.594 
         150         1.92  0.000855306 -0.000934053      113.594 
         150      2.25333  0.000298121 -0.000934449      113.594 
         150      2.61333 -0.000142105 -0.000898454      113.594 
         150            3 -0.000453189 -0.000832476      113.594 
         200            0            0            0      107.152 
         200     0.013333  0.000518827 -3.62249e-07      107.152 
         200     0.053333   0.00139691 -4.53257e-06      107.152 
         200         0.12   0.00253713  -1.4882e-05      107.152 
         200     0.213332   0.00347287 -2.40511e-05      107.152 
         200     0.333332   0.00394885 -1.95769e-05      107.152 
         200         0.48   0.00408148  4.14872e-06      107.152 
         200     0.653331   0.00407521  4.13911e-05      107.152 
         200     0.853332   0.00390213  7.65723e-05      107.152 
         200         1.08    0.0033857  9.31558e-05      107.152 
         200      1.33333   0.00262987  8.91752e-05      107.152 
         200      1.61333   0.00187545  7.77519e-05      107.152 
         200         1.92   0.00109921  6.24442e-05      107.152 
         200      2.25333  0.000398721  4.29487e-05      107.152 
         200      2.61333 -0.000174868  2.27189e-05      107.152 
         200            3 -0.000605237   2.6729e-06      107.151 
         250            0           -0           -0      100.708 
         250     0.013333  0.000165296  1.32922e-08      100.708 
         250     0.053333  7.38458e-05  1.00377e-07      100.708 
         250         0.12 -2.19725e-05 -1.63268e-07      100.708 
         250     0.213332 -7.74343e-05 -2.14789e-06      100.708 
         250     0.333332 -8.58282e-05 -7.12134e-06      100.708 
         250         0.48 -7.96045e-05 -1.49533e-05      100.708 
         250     0.653331  -8.3271e-05 -2.41636e-05      100.708 
         250     0.853332 -8.08367e-05 -3.23903e-05      100.708 
         250         1.08 -4.06852e-05 -3.75689e-05      100.708 
         250      1.33333  1.88191e-05  -4.0233e-05      100.708 
         250      1.61333  6.58636e-05 -4.23263e-05      100.708 
         250         1.92  0.000113871 -4.35779e-05      100.708 
         250      2.25333  0.000159874 -4.35101e-05      100.708 
         250      2.61333  0.000199073 -4.21718e-05      100.708 
         250            3  0.000231139 -3.95463e-05      100.708 
         300            0           -0           -0      94.2657 
         300     0.013333  0.000244246 -1.75366e-07      94.2657 
         300     0.053333  0.000397171 -2.49483e-06      94.2657 
         300         0.12  0.000674139 -1.03031e-05      94.2657 
         300     0.213332  0.000980436 -2.43563e-05      94.2657 
         300     0.333332   0.00118424 -4.13896e-05      94.2657 
         300         0.48   0.00124042 -5.74879e-05      94.2657 
         300     0.653331   0.00119084 -7.18787e-05      94.2657 
         300     0.853332   0.00107221 -8.66954e-05      94.2657 
         300         1.08  0.000904728 -0.000103099      94.2657 
         300      1.33333  0.000737249 -0.000118804      94.2657 
         300      1.61333  0.000591183 -0.000130798      94.2657 
         300         1.92  0.000434417 -0.000138347      94.2657 
         300      2.25333  0.000280727 -0.000141158      94.2657 
         300      2.61333  0.000144186   -0.0001388      94.2657 
         300            3  3.48267e-05 -0.000131568      94.2657 
         350            0           -0           -0      87.8226 
         350     0.013333  0.000179949 -1.57178e-07      87.8226 
         350     0.053333  0.000161613  -2.2976e-06      87.8226 
         350         0.12  0.000226566 -9.93733e-06      87.8226 
         350     0.213332  0.000367207 -2.51404e-05      87.8226 
         350     0.333332  0.000505941 -4.68293e-05      87.8226 
         350         0.48  0.000584981 -7.28097e-05      87.8226 
         350     0.653331  0.000593778 -0.000102654      87.8226 
         350     0.853332  0.000528245 -0.000137641      87.8226 
         350         1.08  0.000403107 -0.000177463      87.8226 
         350      1.33333  0.000289383 -0.000217845      87.8226 
         350      1.61333  0.000231439 -0.000253507      87.8226 
         350         1.92  0.000187281 -0.000281932      87.8226 
         350      2.25333  0.000148158 -0.000301341      87.8226 
         350      2.61333  0.000116189 -0.000310357      87.8226 
         350            3    9.322e-05 -0.000308518      87.8226 
         400            0            0            0      81.3809 
         400     0.013333   0.00035822 -4.32454e-07      81.3809 
         400     0.053333  0.000878958  -6.1977e-06      81.3809 
         400         0.12   0.00176723 -2.58942e-05      81.3809 
         400     0.213332   0.00275471 -6.20292e-05      81.3809 
         400     0.333332   0.00345108 -0.000106359      81.3809 
         400         0.48    0.0036869 -0.000147199      81.3809 
         400     0.653331   0.00357423 -0.000179812      81.3809 
         400     0.853332   0.00326695 -0.000207767      81.3809 
         400         1.08    0.0028393 -0.000235418      81.3809 
         400      1.33333   0.00236925 -0.000261262      81.3809 
         400      1.61333   0.00191184 -0.000280599      81.3809 
         400         1.92   0.00142038 -0.000291687      81.3809 
         400      2.25333  0.000910458 -0.000294155      81.3808 
         400      2.61333  0.000415403 -0.000287355      81.3808 
         400            3 -2.55479e-05 -0.000271437      81.3807 
         450            0            0            0      74.9365 
         450     0.013333 -0.000440546 -6.19246e-08      74.9365 
         450     0.053333  -0.00205604 -1.90155e-06      74.9365 
         450         0.12  -0.00381946 -1.49452e-05      74.9365 
         450     0.213332  -0.00487093 -5.95437e-05      74.9365 
         450     0.333332  -0.00492686 -0.000156259      74.9365 
         450         0.48  -0.00439441  -0.00031093      74.9365 
         450     0.653331  -0.00385358 -0.000513187      74.9365 
         450     0.853332  -0.00355596 -0.000744757      74.9365 
         450         1.08  -0.00333545  -0.00098376      74.9365 
         450      1.33333  -0.00290766  -0.00120908      74.9365 
         450      1.61333  -0.00226354  -0.00140936      74.9366 
         450         1.92  -0.00157262  -0.00157852      74.9366 
         450      2.25333 -0.000869536  -0.00170568      74.9366 
         450      2.61333 -0.000179873  -0.00178105      74.9367 
         450            3  0.000442907  -0.00179849      74.9367 
         500            0            0            0      68.4972 
         500     0.013333  0.000578672  4.16707e-07      68.4972 
         500     0.053333   0.00143532  6.60631e-06      68.4972 
         500         0.12   0.00217306  3.21009e-05      68.4972 
         500     0.213332   0.00234407  9.27723e-05      68.4972 
         500     0.333332   0.00198814  0.000196992      68.4972 
         500         0.48   0.00147205  0.000342092      68.4972 
         500     0.653331    0.0011276  0.000520652      68.4972 
         500     0.853332   0.00109257  0.000726464      68.4972 
         500         1.08   0.00129252  0.000951028      68.4972 
         500      1.33333   0.00144691   0.00117697      68.4972 
         500      1.61333   0.00134856    0.0013841      68.4972 
         500         1.92   0.00112781   0.00156046      68.4972 
         500      2.25333  0.000877802   0.00169685      68.4972 
         500      2.61333  0.000621688   0.00178378      68.4972 
         500            3  0.000369318   0.00181405      68.4972 
         550            0            0            0      62.0563 
         550     0.013333  0.000105499  2.38929e-07      62.0563 
         550     0.053333 -0.000227042  3.55965e-06      62.0563 
         550         0.12 -0.000831055  1.58078e-05      62.0563 
         550     0.213332  -0.00159932  4.09132e-05      62.0563 
         550     0.333332  -0.00227514  7.63704e-05      62.0563 
         550         0.48    -0.002652  0.000114578      62.0563 
         550     0.653331  -0.00271587  0.000148958      62.0563 
         550     0.853332  -0.00257749  0.000177361      62.0563 
         550         1.08  -0.00234962  0.000199812      62.0563 
         550      1.33333  -0.00209605  0.000215923      62.0563 
         550      1.61333   -0.0018025  0.000226561      62.0563 
         550         1.92  -0.00142851  0.000233428      62.0563 
         550      2.25333   -0.0010004  0.000235788      62.0563 
         550      2.61333  -0.00055055  0.000232912      62.0564 
         550            3 -0.000108638  0.000224393      62.0564 
         600            0            0            0      55.6188 
         600     0.013333  0.000230923 -4.92183e-07      55.6188 
         600     0.053333  0.000448668 -7.23338e-06      55.6188 
         600         0.12   0.00105942  -3.1644e-05      55.6188 
         600     0.213332    0.0019958 -8.13673e-05      55.6188 
         600     0.333332   0.00292108 -0.000153746      55.6188 
         600         0.48   0.00354236 -0.000239582      55.6188 
         600     0.653331   0.00380401 -0.000332424      55.6188 
         600     0.853332   0.00376168 -0.000433115      55.6188 
         600         1.08   0.00343444  -0.00054603      55.6188 
         600      1.33333   0.00290148 -0.000669407      55.6188 
         600      1.61333   0.00236201 -0.000791582      55.6188 
         600         1.92   0.00187861 -0.000900834      55.6188 
         600      2.25333   0.00138708 -0.000990671      55.6187 
         600      2.61333  0.000877174  -0.00105562      55.6187 
         600            3  0.000385827   -0.0010908      55.6187 
         650            0           -0           -0      49.1791 
         650     0.013333  0.000266404 -1.02077e-08      49.1791 
         650     0.053333  0.000444985 -1.61562e-07      49.1791 
         650         0.12  0.000701676 -7.16337e-07      49.1791 
         650     0.213332  0.000961464  -1.5106e-06      49.1791 
         650     0.333332   0.00114123 -1.11348e-06      49.1791 
         650         0.48   0.00119467  2.94364e-06      49.1791 
         650     0.653331   0.00114035  1.26081e-05      49.1791 
         650     0.853332   0.00103675  2.85667e-05      49.1791 
         650         1.08   0.00094961  5.13468e-05      49.1791 
         650      1.33333  0.000917918   8.1418e-05      49.1791 
         650      1.61333  0.000899562  0.000116272      49.1791 
         650         1.92   0.00082014  0.000150772      49.1791 
         650      2.25333  0.000698973  0.000182107      49.1791 
         650      2.61333   0.00056142  0.000208573      49.1791 
         650            3  0.000417368  0.000228881      49.1791 
         700            0           -0           -0      42.7398 
         700     0.013333   0.00017954  2.25201e-07      42.7398 
         700     0.053333  5.66107e-05  3.29255e-06      42.7398 
         700         0.12 -0.000236867  1.42711e-05      42.7398 
         700     0.213332 -0.000660811  3.62002e-05      42.7398 
         700     0.333332  -0.00105852  6.72537e-05      42.7398 
         700         0.48   -0.0013076  0.000103034      42.7398 
         700     0.653331  -0.00139853  0.000141277      42.7398 
         700     0.853332  -0.00135961  0.000183699      42.7398 
         700         1.08  -0.00118748   0.00023346      42.7398 
         700      1.33333 -0.000918723  0.000289718      42.7398 
         700      1.61333 -0.000668997  0.000346022      42.7398 
         700         1.92 -0.000476007  0.000396393      42.7398 
         700      2.25333 -0.000288383  0.000438754      42.7398 
         700      2.61333 -9.00286e-05   0.00047103      42.7398 
         700            3  0.000104027  0.000490926      42.7398 
         750            0  2.84963e-19 -2.43052e-27      36.3025 
         750     0.013333  0.000381236  2.27072e-08      36.3025 
         750     0.053333  0.000826635  6.36396e-07      36.3025 
         750         0.12    0.0012987  4.86741e-06      36.3025 
         750     0.213332   0.00152146  1.93737e-05      36.3025 
         750     0.333332   0.00140083  5.11237e-05      36.3025 
         750         0.48   0.00108939  0.000101939      36.3025 
         750     0.653331  0.000816693  0.000167309      36.3025 
         750     0.853332  0.000685656  0.000239657      36.3025 
         750         1.08  0.000625686  0.000310933      36.3025 
         750      1.33333  0.000514202  0.000374866      36.3025 
         750      1.61333  0.000354231  0.000430662      36.3025 
         750         1.92  0.000240327  0.000481102      36.3025 
         750      2.25333  0.000159418  0.000524796      36.3025 
         750      2.61333  8.83278e-05  0.000558527      36.3025 
         750            3  2.65802e-05  0.000579174      36.3025 
         800            0           -0           -0      29.8642 
         800     0.013333 -0.000107028  1.50008e-08      29.8642 
         800     0.053333 -0.000912857 -1.59178e-07      29.8642 
         800         0.12  -0.00186639 -3.27321e-06      29.8642 
         800     0.213332  -0.00256498 -1.68137e-05      29.8642 
         800     0.333332  -0.00280697 -4.96182e-05      29.8642 
         800         0.48  -0.00270921 -0.000105514      29.8642 
         800     0.653331  -0.00253659  -0.00018151      29.8642 
         800     0.853332   -0.0024601 -0.000270755      29.8642 
         800         1.08  -0.00244359 -0.000364184      29.8642 
         800      1.33333  -0.00230391 -0.000451099      29.8642 
         800      1.61333  -0.00195758 -0.000524603      29.8642 
         800         1.92  -0.00154323  -0.00058696      29.8642 
         800      2.25333  -0.00112863 -0.000638713      29.8642 
         800      2.61333 -0.000711572 -0.000677769      29.8642 
         800            3 -0.000285565 -0.000700738      29.8642 
         850            0            0            0      23.4283 
         850     0.013333  0.000354288  6.94903e-08      23.4283 
         850     0.053333  0.000714164  1.30217e-06      23.4283 
         850         0.12    0.0010506  7.59595e-06      23.4283 
         850     0.213332   0.00113185  2.56197e-05      23.4283 
         850     0.333332  0.000926738  6.08654e-05      23.4283 
         850         0.48  0.000618422  0.000113168      23.4283 
         850     0.653331  0.000417342  0.000177196      23.4283 
         850     0.853332  0.000395989  0.000246377      23.4283 
         850         1.08  0.000473643  0.000314533      23.4283 
         850      1.33333  0.000493649  0.000375055      23.4283 
         850      1.61333  0.000385163  0.000423953      23.4283 
         850         1.92  0.000258735  0.000462961      23.4283 
         850      2.25333  0.000173017  0.000494214      23.4283 
         850      2.61333  0.000115614    0.0005164      23.4283 
         850            3  6.34132e-05  0.000526843      23.4283 
         900            0  6.85204e-20  -1.2536e-25      16.9898 
         900     0.013333 -0.000323912  2.09944e-07      16.9898 
         900     0.053333   -0.0017609  2.59681e-06      16.9898 
         900         0.12  -0.00363361  7.87652e-06      16.9898 
         900     0.213332  -0.00523928  8.10005e-06      16.9898 
         900     0.333332   -0.0060259 -1.27491e-05      16.9898 
         900         0.48  -0.00596624 -6.80745e-05      16.9898 
         900     0.653331   -0.0054648 -0.000159248      16.9898 
         900     0.853332  -0.00492494 -0.000276431      16.9898 
         900         1.08  -0.00445897 -0.000405271      16.9898 
         900      1.33333  -0.00395637 -0.000533128      16.9898 
         900      1.61333  -0.00334124 -0.000653635      16.9898 
         900         1.92  -0.00268781 -0.000766338      16.9898 
         900      2.25333  -0.00202196 -0.000870001      16.9898 
         900      2.61333  -0.00133575 -0.000959261      16.9898 
         900            3 -0.000632376  -0.00102805      16.9899 
         950            0            0            0      10.5563 
         950     0.013333 -9.93211e-05 -9.22799e-07      10.5563 
         950     0.053333 -0.000575147 -1.41943e-05      10.5563 
         950         0.12 -0.000330002 -6.65387e-05      10.5563 
         950     0.213332   0.00110506 -0.000185982      10.5563 
         950     0.333332   0.00329318 -0.000383158      10.5563 
         950         0.48   0.00530079  -0.00064526      10.5563 
         950     0.653331   0.00647968 -0.000949369      10.5563 
         950     0.853332   0.00673698  -0.00127953      10.5563 
         950         1.08   0.00628266  -0.00162962      10.5563 
         950      1.33333    0.0054457  -0.00199182      10.5563 
         950      1.61333   0.00459946  -0.00234892      10.5563 
         950         1.92   0.00391978  -0.00268214      10.5563 
         950      2.25333   0.00325723  -0.00297726      10.5563 
         950      2.61333   0.00253347  -0.00322121      10.5562 
         950            3   0.00176475  -0.00339962      10.5562 
        1000            0           -0           -0      4.12219 
        1000     0.013333   0.00113047  -5.0891e-07      4.12219 
        1000     0.053333     0.003725 -6.78295e-06      4.12219 
        1000         0.12   0.00730619 -2.45678e-05      4.12219 
        1000     0.213332    0.0107037 -4.56986e-05      4.12219 
        1000     0.333332    0.0128714 -4.66125e-05      4.12219 
        1000         0.48    0.0135782 -4.45388e-06      4.12219 
        1000     0.653331    0.0133741  8.69418e-05       4.1222 
        1000     0.853332    0.0129181  0.000215661       4.1222 
        1000         1.08    0.0124121  0.000358994      4.12221 
        1000      1.33333       0.0116  0.000491935       4.1222 
        1000      1.61333    0.0102929  0.000599135       4.1222 
        1000         1.92     0.008726  0.000686178      4.12217 
        1000      2.25333     0.007104  0.000759195      4.12213 
        1000      2.61333   0.00544415  0.000818947      4.12207 
        1000            3   0.00370361  0.000861271      4.12198 
