Variables = x, y, u, v, p

Zone, I=416, F=POINT
         -50            0            0            0     -210.267 
         -50     0.013333 -0.000286141  -7.4847e-08     -210.267 
         -50     0.053333   -0.0002467 -3.37203e-07     -210.267 
         -50         0.12 -0.000218828  -9.6322e-07     -210.267 
         -50     0.213332  -0.00019886 -1.83131e-06     -210.267 
         -50     0.333332  -0.00018838 -2.40931e-06     -210.267 
         -50         0.48 -0.000184328 -3.34931e-06     -210.267 
         -50     0.653331  -0.00018587  -3.2797e-06     -210.267 
         -50     0.853332 -0.000193143  -3.2963e-06     -210.266 
         -50         1.08 -0.000205553 -4.34179e-06     -210.266 
         -50      1.33333 -0.000220054 -4.56398e-06     -210.265 
         -50      1.61333 -0.000236613 -4.99412e-06     -210.264 
         -50         1.92 -0.000250379 -5.97068e-06     -210.262 
         -50      2.25333 -0.000261906 -6.83326e-06      -210.26 
         -50      2.61333 -0.000268332  -6.8879e-06     -210.258 
         -50            3 -0.000266979 -6.43215e-06     -210.255 
         -25            0           -0           -0     -204.601 
         -25     0.013333 -0.000245207 -4.28964e-09     -204.601 
         -25     0.053333 -0.000218822  1.12446e-07     -204.601 
         -25         0.12 -0.000210652  5.85167e-07     -204.601 
         -25     0.213332 -0.000210887  1.56217e-06     -204.601 
         -25     0.333332 -0.000211941  3.01219e-06     -204.601 
         -25         0.48 -0.000209056  4.92896e-06     -204.601 
         -25     0.653331 -0.000202724  7.22143e-06     -204.601 
         -25     0.853332 -0.000196096  9.71012e-06       -204.6 
         -25         1.08 -0.000194612  1.20507e-05       -204.6 
         -25      1.33333  -0.00019733  1.38141e-05       -204.6 
         -25      1.61333 -0.000201177  1.47124e-05       -204.6 
         -25         1.92 -0.000204228   1.5057e-05       -204.6 
         -25      2.25333 -0.000203892  1.40024e-05     -204.599 
         -25      2.61333 -0.000202963  1.26531e-05     -204.598 
         -25            3 -0.000206107  1.22039e-05     -204.598 
           0            0            0            0     -199.171 
           0     0.013333 -0.000683727  0.000493069     -199.178 
           0     0.053333 -0.000484841  0.000249723     -199.189 
           0         0.12 -0.000403439  0.000177513     -199.202 
           0     0.213332 -0.000363155  0.000136955     -199.215 
           0     0.333332 -0.000335927  0.000113013      -199.23 
           0         0.48 -0.000310703  9.42272e-05     -199.244 
           0     0.653331 -0.000292049  7.93035e-05     -199.258 
           0     0.853332 -0.000277613  6.70264e-05     -199.272 
           0         1.08 -0.000264315  5.67693e-05     -199.286 
           0      1.33333 -0.000251435  4.81079e-05       -199.3 
           0      1.61333 -0.000239776  4.11132e-05     -199.313 
           0         1.92 -0.000228406  3.49149e-05     -199.326 
           0      2.25333  -0.00021807  3.02275e-05     -199.338 
           0      2.61333 -0.000208532  2.66207e-05      -199.35 
           0            3 -0.000198605  2.55927e-05     -199.362 
          20            0 -0.000381332  0.000137919     -195.746 
          20     0.013333 -0.000393477  0.000138736     -195.746 
          20     0.053333 -0.000431546   0.00014117     -195.746 
          20         0.12  -0.00049984  0.000145179     -195.746 
          20     0.213332 -0.000601978  0.000150938     -195.746 
          20     0.333332 -0.000732912  0.000158618     -195.746 
          20         0.48 -0.000856621  0.000169897     -195.745 
          20     0.653331 -0.000928299  0.000185579     -195.745 
          20     0.853332 -0.000919367   0.00020497     -195.745 
          20         1.08 -0.000832473  0.000225125     -195.744 
          20      1.33333 -0.000696683   0.00024159     -195.743 
          20      1.61333 -0.000540553  0.000250343     -195.743 
          20         1.92 -0.000392162  0.000249594     -195.742 
          20      2.25333 -0.000265959  0.000239657     -195.741 
          20      2.61333 -0.000175173  0.000222535      -195.74 
          20            3   -0.0001259  0.000198336     -195.739 
          40            0 -4.83005e-19 -3.48347e-23     -191.947 
          40     0.013333 -0.000121768 -4.17251e-07     -191.947 
          40     0.053333  0.000267802 -5.36252e-06     -191.947 
          40         0.12   0.00082885 -2.00886e-05     -191.947 
          40     0.213332   0.00131559 -4.16065e-05     -191.947 
          40     0.333332   0.00152764 -6.24813e-05     -191.947 
          40         0.48   0.00147119 -8.25969e-05     -191.946 
          40     0.653331   0.00134303 -0.000100722     -191.946 
          40     0.853332   0.00129867 -0.000104792     -191.946 
          40         1.08   0.00111577 -9.81931e-05     -191.946 
          40      1.33333  0.000740912 -8.77951e-05     -191.945 
          40      1.61333  0.000315054 -7.04123e-05     -191.945 
          40         1.92 -7.56849e-05 -4.71301e-05     -191.944 
          40      2.25333 -0.000375779 -2.10394e-05     -191.944 
          40      2.61333 -0.000559886  4.53765e-06     -191.943 
          40            3 -0.000639756  2.51021e-05     -191.941 
          60            0            0            0     -188.003 
          60     0.013333 -0.000122528 -2.51118e-07     -188.003 
          60     0.053333  0.000214848 -3.35679e-06     -188.003 
          60         0.12  0.000684124 -1.27486e-05     -188.003 
          60     0.213332   0.00111721  -2.7143e-05     -188.003 
          60     0.333332   0.00137802 -4.07429e-05     -188.003 
          60         0.48   0.00148135 -4.92226e-05     -188.003 
          60     0.653331   0.00149145 -5.46312e-05     -188.003 
          60     0.853332   0.00139664 -6.48782e-05     -188.003 
          60         1.08   0.00116238 -8.44871e-05     -188.003 
          60      1.33333  0.000809189 -0.000110684     -188.003 
          60      1.61333  0.000393452 -0.000135402     -188.003 
          60         1.92 -4.70063e-05  -0.00015376     -188.003 
          60      2.25333 -0.000372499 -0.000164304     -188.003 
          60      2.61333   -0.0005696 -0.000165398     -188.003 
          60            3  -0.00068405 -0.000159779     -188.003 
          80            0            0            0     -184.122 
          80     0.013333 -0.000220749  -4.6301e-07     -184.122 
          80     0.053333 -7.35602e-05  -6.8051e-06     -184.122 
          80         0.12  0.000331248 -2.94875e-05     -184.122 
          80     0.213332  0.000908244 -7.38678e-05     -184.122 
          80     0.333332   0.00138261  -0.00013427     -184.122 
          80         0.48   0.00157603 -0.000201481     -184.122 
          80     0.653331   0.00145574 -0.000272594     -184.122 
          80     0.853332   0.00108252 -0.000347328     -184.122 
          80         1.08  0.000664496 -0.000417912     -184.122 
          80      1.33333  0.000360941 -0.000475405     -184.122 
          80      1.61333    0.0001277 -0.000515262     -184.122 
          80         1.92  -0.00013352 -0.000532425     -184.122 
          80      2.25333 -0.000342062 -0.000525806     -184.122 
          80      2.61333 -0.000480361 -0.000497726     -184.122 
          80            3 -0.000554861 -0.000453823     -184.122 
         100            0           -0           -0     -180.255 
         100     0.013333 -0.000234874 -6.66625e-07     -180.255 
         100     0.053333 -8.59987e-05 -9.71581e-06     -180.255 
         100         0.12  0.000394928 -4.15831e-05     -180.255 
         100     0.213332   0.00109143 -0.000103015     -180.255 
         100     0.333332   0.00165027 -0.000186372     -180.255 
         100         0.48   0.00185421 -0.000281101     -180.255 
         100     0.653331   0.00165531 -0.000385659     -180.255 
         100     0.853332   0.00113655  -0.00049892     -180.255 
         100         1.08  0.000670175  -0.00060234     -180.255 
         100      1.33333  0.000456009 -0.000678642     -180.255 
         100      1.61333  0.000234011 -0.000729743     -180.255 
         100         1.92 -8.23781e-05  -0.00075249     -180.255 
         100      2.25333 -0.000341035 -0.000743761     -180.255 
         100      2.61333 -0.000517241 -0.000705941     -180.255 
         100            3 -0.000627022 -0.000646087     -180.255 
         150            0           -0           -0     -170.603 
         150     0.013333 -0.000171557 -1.68017e-07     -170.603 
         150     0.053333  2.22505e-05 -2.36941e-06     -170.603 
         150         0.12  0.000302524 -9.54121e-06     -170.603 
         150     0.213332   0.00056953 -2.14524e-05     -170.603 
         150     0.333332  0.000710339 -3.38321e-05     -170.603 
         150         0.48  0.000709394 -4.32652e-05     -170.603 
         150     0.653331  0.000608839 -5.05225e-05     -170.603 
         150     0.853332  0.000458696 -5.66534e-05     -170.603 
         150         1.08  0.000329007 -5.89962e-05     -170.603 
         150      1.33333  0.000211069 -5.75154e-05     -170.603 
         150      1.61333  5.92525e-05 -5.48453e-05     -170.603 
         150         1.92 -8.98535e-05 -5.04873e-05     -170.603 
         150      2.25333 -0.000211517 -4.44297e-05     -170.603 
         150      2.61333 -0.000306226 -3.74537e-05     -170.603 
         150            3 -0.000372923  -3.0551e-05     -170.603 
         200            0            0            0     -160.954 
         200     0.013333 -9.22588e-05  3.75724e-07     -160.954 
         200     0.053333   0.00017643  5.66187e-06     -160.954 
         200         0.12  0.000263503  2.55777e-05     -160.954 
         200     0.213332  7.36861e-05   6.8107e-05     -160.954 
         200     0.333332 -0.000245639  0.000133909     -160.954 
         200         0.48 -0.000498958  0.000218963     -160.954 
         200     0.653331 -0.000573707  0.000320829     -160.954 
         200     0.853332 -0.000435417  0.000438467     -160.954 
         200         1.08 -0.000204754  0.000563389     -160.954 
         200      1.33333 -9.53296e-05  0.000678679     -160.954 
         200      1.61333  -9.5136e-05  0.000772709     -160.954 
         200         1.92 -9.03639e-05  0.000838731     -160.954 
         200      2.25333 -9.67604e-05  0.000871379     -160.954 
         200      2.61333 -0.000111566  0.000869668     -160.954 
         200            3 -0.000126563  0.000836559     -160.954 
         250            0           -0           -0     -151.303 
         250     0.013333 -0.000202575 -1.12008e-07     -151.303 
         250     0.053333 -9.79354e-05  -1.5747e-06     -151.303 
         250         0.12  5.79854e-05 -6.39446e-06     -151.303 
         250     0.213332  0.000222644  -1.4896e-05     -151.303 
         250     0.333332  0.000332658 -2.52194e-05     -151.303 
         250         0.48  0.000372262 -3.55838e-05     -151.303 
         250     0.653331  0.000358481 -4.62667e-05     -151.303 
         250     0.853332  0.000294572 -5.91354e-05     -151.303 
         250         1.08  0.000185067 -7.48551e-05     -151.303 
         250      1.33333  7.45908e-05 -9.11102e-05     -151.303 
         250      1.61333  -1.4295e-05 -0.000104964     -151.303 
         250         1.92 -0.000105617 -0.000115373     -151.303 
         250      2.25333 -0.000189408 -0.000121763     -151.303 
         250      2.61333 -0.000259408 -0.000123627     -151.303 
         250            3 -0.000313096 -0.000121165     -151.303 
         300            0           -0           -0     -141.647 
         300     0.013333 -0.000293378  2.22464e-08     -141.647 
         300     0.053333 -0.000444819  2.01042e-07     -141.647 
         300         0.12 -0.000628403 -6.56318e-09     -141.647 
         300     0.213332 -0.000728378 -2.99784e-06     -141.647 
         300     0.333332 -0.000696082 -1.20189e-05     -141.647 
         300         0.48 -0.000579281 -2.83956e-05     -141.647 
         300     0.653331 -0.000454967 -5.04779e-05     -141.647 
         300     0.853332 -0.000357052 -7.54446e-05     -141.647 
         300         1.08 -0.000290253 -0.000101739     -141.647 
         300      1.33333 -0.000253063 -0.000128825     -141.647 
         300      1.61333 -0.000223695 -0.000155039     -141.647 
         300         1.92  -0.00019158 -0.000177673     -141.647 
         300      2.25333 -0.000160598 -0.000194684     -141.647 
         300      2.61333 -0.000135609 -0.000204875     -141.647 
         300            3 -0.000120943 -0.000207717     -141.647 
         350            0           -0           -0     -131.986 
         350     0.013333 -0.000329564  2.88938e-07     -131.986 
         350     0.053333 -0.000644618  4.06747e-06     -131.986 
         350         0.12  -0.00118624  1.65558e-05     -131.986 
         350     0.213332  -0.00176585  3.85098e-05     -131.986 
         350     0.333332  -0.00215556  6.43183e-05     -131.986 
         350         0.48  -0.00228609  8.75933e-05     -131.986 
         350     0.653331  -0.00223841  0.000107116     -131.986 
         350     0.853332  -0.00207564  0.000126928     -131.986 
         350         1.08  -0.00179936  0.000151234     -131.986 
         350      1.33333  -0.00146267  0.000178719     -131.986 
         350      1.61333  -0.00114618  0.000203481     -131.986 
         350         1.92 -0.000824785  0.000222457     -131.986 
         350      2.25333  -0.00050658  0.000234548     -131.986 
         350      2.61333 -0.000211233  0.000238758     -131.986 
         350            3  3.95813e-05  0.000234936     -131.986 
         400            0            0            0     -122.321 
         400     0.013333  5.99483e-05  3.67567e-07     -122.321 
         400     0.053333  0.000695726  5.97516e-06     -122.321 
         400         0.12    0.0011049  2.98894e-05     -122.321 
         400     0.213332   0.00092611  8.84036e-05     -122.321 
         400     0.333332  0.000288721  0.000189895     -122.321 
         400         0.48 -0.000371667   0.00032918     -122.321 
         400     0.653331 -0.000739258     0.000494     -122.321 
         400     0.853332   -0.0007807  0.000672908     -122.321 
         400         1.08 -0.000659003  0.000854936     -122.321 
         400      1.33333 -0.000567106    0.0010279     -122.321 
         400      1.61333  -0.00054653    0.0011818     -122.321 
         400         1.92 -0.000512423   0.00130825     -122.321 
         400      2.25333 -0.000464208   0.00139765     -122.321 
         400      2.61333 -0.000408489   0.00144277     -122.321 
         400            3 -0.000346471   0.00144003     -122.321 
         450            0            0            0     -112.653 
         450     0.013333 -8.02565e-05 -7.00159e-07     -112.653 
         450     0.053333  0.000506732 -1.00779e-05     -112.653 
         450         0.12   0.00161869  -4.2628e-05     -112.653 
         450     0.213332   0.00300485 -0.000104876     -112.653 
         450     0.333332   0.00416004 -0.000188433     -112.653 
         450         0.48   0.00479459 -0.000279277     -112.653 
         450     0.653331   0.00495977 -0.000371431     -112.653 
         450     0.853332   0.00476178 -0.000470381     -112.653 
         450         1.08   0.00420445 -0.000584322     -112.653 
         450      1.33333   0.00340798 -0.000709998     -112.653 
         450      1.61333   0.00262373  -0.00083107     -112.653 
         450         1.92   0.00185807 -0.000934198     -112.653 
         450      2.25333   0.00107852  -0.00101286     -112.653 
         450      2.61333   0.00030926  -0.00106132     -112.653 
         450            3  -0.00038952  -0.00107568     -112.653 
         500            0            0            0     -102.986 
         500     0.013333 -0.000165778 -1.98638e-07     -102.986 
         500     0.053333  6.76778e-05 -2.89396e-06     -102.986 
         500         0.12  0.000448131 -1.22831e-05     -102.986 
         500     0.213332  0.000857087 -2.95282e-05     -102.986 
         500     0.333332   0.00109179 -4.97424e-05     -102.986 
         500         0.48   0.00106386 -6.60729e-05     -102.986 
         500     0.653331  0.000844786 -7.63998e-05     -102.986 
         500     0.853332  0.000537028 -8.35483e-05     -102.986 
         500         1.08  0.000230082 -8.84329e-05     -102.986 
         500      1.33333  4.12731e-05 -8.60771e-05     -102.986 
         500      1.61333 -1.62762e-05 -7.30894e-05     -102.986 
         500         1.92 -7.36321e-05 -5.32761e-05     -102.986 
         500      2.25333 -0.000151134 -2.99535e-05     -102.986 
         500      2.61333 -0.000232127 -4.82982e-06     -102.986 
         500            3 -0.000304382  2.08759e-05     -102.986 
         550            0            0            0     -93.3179 
         550     0.013333 -0.000797907 -2.37144e-07     -93.3179 
         550     0.053333  -0.00215568 -4.46084e-06     -93.3179 
         550         0.12  -0.00350518 -2.60019e-05     -93.3179 
         550     0.213332  -0.00406275  -8.7292e-05     -93.3179 
         550     0.333332  -0.00371143 -0.000206364     -93.3179 
         550         0.48  -0.00298681  -0.00038326     -93.3179 
         550     0.653331  -0.00247824   -0.0006028     -93.3179 
         550     0.853332  -0.00236235 -0.000845274     -93.3179 
         550         1.08  -0.00237988  -0.00108896     -93.3179 
         550      1.33333  -0.00216953  -0.00131301     -93.3179 
         550      1.61333  -0.00172617  -0.00150847     -93.3179 
         550         1.92  -0.00128639  -0.00167467     -93.3179 
         550      2.25333 -0.000866273  -0.00180298     -93.3179 
         550      2.61333 -0.000453909  -0.00188328     -93.3178 
         550            3  -7.2573e-05  -0.00190806     -93.3178 
         600            0            0            0     -83.6472 
         600     0.013333  8.12194e-05  9.06607e-07     -83.6472 
         600     0.053333  0.000624302  1.38814e-05     -83.6472 
         600         0.12  0.000568981  6.43795e-05     -83.6472 
         600     0.213332 -0.000432971  0.000176853     -83.6472 
         600     0.333332  -0.00193067  0.000356794     -83.6472 
         600         0.48   -0.0031753  0.000589548     -83.6472 
         600     0.653331  -0.00375844  0.000857147     -83.6472 
         600     0.853332  -0.00365999   0.00115134     -83.6472 
         600         1.08  -0.00304843   0.00146747     -83.6472 
         600      1.33333  -0.00230666   0.00178822     -83.6472 
         600      1.61333  -0.00181825   0.00208564     -83.6472 
         600         1.92  -0.00147838   0.00234155     -83.6472 
         600      2.25333  -0.00112092   0.00254471     -83.6471 
         600      2.61333 -0.000730781   0.00268224     -83.6471 
         600            3 -0.000356913   0.00274252     -83.6471 
         650            0           -0           -0     -73.9741 
         650     0.013333  -0.00049694 -4.49821e-07     -73.9741 
         650     0.053333  -0.00104862 -6.90298e-06     -73.9741 
         650         0.12  -0.00141991 -3.22285e-05     -73.9741 
         650     0.213332  -0.00128662 -8.97594e-05     -73.9741 
         650     0.333332 -0.000746632 -0.000185081     -73.9741 
         650         0.48 -0.000133061 -0.000314512     -73.9741 
         650     0.653331  0.000290282  -0.00047126     -73.9741 
         650     0.853332  0.000416342 -0.000651458     -73.9741 
         650         1.08  0.000238395 -0.000853178     -73.9741 
         650      1.33333 -0.000102258  -0.00106855     -73.9741 
         650      1.61333 -0.000339448  -0.00127994     -73.9741 
         650         1.92 -0.000398898  -0.00147024     -73.9741 
         650      2.25333 -0.000403591   -0.0016295     -73.9741 
         650      2.61333 -0.000404853  -0.00174851     -73.9741 
         650            3 -0.000391779  -0.00181889     -73.9741 
         700            0           -0           -0     -64.2995 
         700     0.013333 -0.000112568 -1.39612e-07     -64.2995 
         700     0.053333  0.000254553 -1.99355e-06     -64.2995 
         700         0.12  0.000800925 -8.31572e-06     -64.2995 
         700     0.213332   0.00140262 -1.99589e-05     -64.2995 
         700     0.333332   0.00188602 -3.42368e-05     -64.2995 
         700         0.48    0.0021537 -4.67345e-05     -64.2995 
         700     0.653331   0.00222991 -5.46351e-05     -64.2995 
         700     0.853332   0.00219003 -5.81816e-05     -64.2995 
         700         1.08   0.00207461 -5.96338e-05     -64.2995 
         700      1.33333   0.00188606 -6.11081e-05     -64.2995 
         700      1.61333   0.00162866 -6.35239e-05     -64.2995 
         700         1.92   0.00131739 -6.67324e-05     -64.2995 
         700      2.25333  0.000969466 -7.00251e-05     -64.2995 
         700      2.61333  0.000599787 -7.28507e-05     -64.2995 
         700            3  0.000224501 -7.47928e-05     -64.2995 
         750            0 -2.40272e-19  1.58837e-26     -54.6247 
         750     0.013333 -0.000150591  1.35166e-07     -54.6247 
         750     0.053333  3.05619e-05   2.0829e-06     -54.6247 
         750         0.12  0.000132151   9.7807e-06     -54.6247 
         750     0.213332  6.94136e-05  2.73755e-05     -54.6247 
         750     0.333332 -0.000116888  5.65669e-05     -54.6247 
         750         0.48 -0.000313097  9.59663e-05     -54.6247 
         750     0.653331 -0.000435431  0.000143105     -54.6247 
         750     0.853332 -0.000457156  0.000196515     -54.6247 
         750         1.08 -0.000387625  0.000255471     -54.6247 
         750      1.33333  -0.00027648  0.000317695     -54.6247 
         750      1.61333 -0.000199629  0.000378484     -54.6247 
         750         1.92 -0.000175924  0.000433719     -54.6247 
         750      2.25333 -0.000167435  0.000480841     -54.6247 
         750      2.61333 -0.000158602   0.00051744     -54.6247 
         750            3 -0.000153214  0.000541071     -54.6247 
         800            0           -0           -0     -44.9466 
         800     0.013333 -0.000266752 -1.63503e-08     -44.9466 
         800     0.053333 -0.000342342 -2.82537e-07     -44.9466 
         800         0.12 -0.000440186 -1.51176e-06     -44.9466 
         800     0.213332 -0.000505179 -4.76729e-06     -44.9466 
         800     0.333332 -0.000521151 -1.08608e-05     -44.9466 
         800         0.48 -0.000506823 -1.98746e-05     -44.9466 
         800     0.653331 -0.000490859 -3.13731e-05     -44.9466 
         800     0.853332 -0.000489532 -4.48748e-05     -44.9466 
         800         1.08 -0.000503122 -5.98747e-05     -44.9466 
         800      1.33333 -0.000512891 -7.52552e-05     -44.9466 
         800      1.61333 -0.000494062 -8.92684e-05     -44.9466 
         800         1.92 -0.000447931 -0.000101014     -44.9466 
         800      2.25333 -0.000394816 -0.000110558     -44.9466 
         800      2.61333 -0.000342173 -0.000117398     -44.9466 
         800            3  -0.00028817 -0.000120976     -44.9466 
         850            0            0            0     -35.2643 
         850     0.013333 -0.000224527  1.52808e-09     -35.2643 
         850     0.053333 -0.000194707  2.76862e-08     -35.2643 
         850         0.12 -0.000178495   1.5834e-07     -35.2643 
         850     0.213332 -0.000171747   5.2111e-07     -35.2643 
         850     0.333332 -0.000171776  1.20905e-06     -35.2643 
         850         0.48 -0.000173784  2.21434e-06     -35.2643 
         850     0.653331 -0.000175168  3.46501e-06     -35.2643 
         850     0.853332 -0.000174248  4.91635e-06     -35.2643 
         850         1.08 -0.000171072  6.51385e-06     -35.2643 
         850      1.33333 -0.000168282  8.09637e-06     -35.2643 
         850      1.61333 -0.000170114  9.28427e-06     -35.2643 
         850         1.92  -0.00017654  1.03404e-05     -35.2643 
         850      2.25333 -0.000183591  1.09445e-05     -35.2643 
         850      2.61333 -0.000190181  1.11765e-05     -35.2643 
         850            3 -0.000197118  1.12259e-05     -35.2643 
         900            0 -5.41791e-19  2.71383e-26     -25.5788 
         900     0.013333 -0.000230245  -7.2882e-10     -25.5788 
         900     0.053333 -0.000213844 -1.25125e-08     -25.5788 
         900         0.12 -0.000211647 -6.39631e-08     -25.5788 
         900     0.213332 -0.000212689 -1.93304e-07     -25.5788 
         900     0.333332 -0.000212967 -4.25743e-07     -25.5788 
         900         0.48  -0.00021154 -7.59046e-07     -25.5788 
         900     0.653331 -0.000210276 -1.17636e-06     -25.5788 
         900     0.853332 -0.000209747 -1.65264e-06     -25.5788 
         900         1.08 -0.000209959 -2.19717e-06     -25.5788 
         900      1.33333 -0.000210422 -2.78498e-06     -25.5788 
         900      1.61333 -0.000210105 -3.33721e-06     -25.5788 
         900         1.92 -0.000208849 -3.67541e-06     -25.5788 
         900      2.25333  -0.00020726 -4.11403e-06     -25.5788 
         900      2.61333 -0.000206035 -4.43715e-06     -25.5788 
         900            3  -0.00020527 -4.53485e-06     -25.5788 
         950            0            0            0      -15.891 
         950     0.013333 -0.000228965 -5.06002e-11      -15.891 
         950     0.053333 -0.000209115 -7.27562e-10      -15.891 
         950         0.12 -0.000203325 -1.44099e-09      -15.891 
         950     0.213332 -0.000202356  1.96546e-09      -15.891 
         950     0.333332 -0.000202585  1.48272e-08      -15.891 
         950         0.48  -0.00020216  3.99989e-08      -15.891 
         950     0.653331 -0.000201815  7.62476e-08      -15.891 
         950     0.853332  -0.00020148  1.22472e-07      -15.891 
         950         1.08 -0.000201083  1.71042e-07      -15.891 
         950      1.33333 -0.000200697  2.14071e-07      -15.891 
         950      1.61333 -0.000200523  2.46515e-07      -15.891 
         950         1.92 -0.000200556  2.77271e-07      -15.891 
         950      2.25333 -0.000200787  2.72349e-07      -15.891 
         950      2.61333 -0.000201178  2.68113e-07      -15.891 
         950            3 -0.000201719  2.66784e-07      -15.891 
        1000            0           -0           -0     -6.20175 
        1000     0.013333 -0.000229318  6.61099e-11     -6.20175 
        1000     0.053333 -0.000210102  6.46656e-10     -6.20175 
        1000         0.12 -0.000205134  2.34508e-09     -6.20175 
        1000     0.213332 -0.000204886  5.53449e-09     -6.20175 
        1000     0.333332 -0.000205545  1.03114e-08     -6.20175 
        1000         0.48 -0.000205279  1.65069e-08     -6.20175 
        1000     0.653331 -0.000204964  2.46959e-08     -6.20175 
        1000     0.853332  -0.00020466  3.24002e-08     -6.20175 
        1000         1.08 -0.000204312  4.40617e-08     -6.20175 
        1000      1.33333 -0.000203888  6.70923e-08     -6.20175 
        1000      1.61333 -0.000203373  7.06743e-08     -6.20175 
        1000         1.92 -0.000202826  1.05009e-07     -6.20175 
        1000      2.25333 -0.000202406  4.90759e-08     -6.20175 
        1000      2.61333 -0.000202213  3.18057e-08     -6.20175 
        1000            3 -0.000202295  1.02947e-07     -6.20175 
