Variables = x, y, u, v, p

Zone, I=416, F=POINT
         -50            0            0            0      3.21859 
         -50     0.013333  7.31646e-05  2.14325e-08      3.21859 
         -50     0.053333   4.5178e-05  1.91888e-07      3.21859 
         -50         0.12  2.62666e-05  6.53836e-07      3.21859 
         -50     0.213332  9.08824e-06  1.31527e-06      3.21859 
         -50     0.333332 -4.01631e-06  1.75926e-06      3.21859 
         -50         0.48 -1.20157e-05  2.58834e-06      3.21859 
         -50     0.653331 -1.30352e-05  3.63166e-06      3.21859 
         -50     0.853332 -3.82095e-06   5.0454e-06      3.21858 
         -50         1.08  1.25365e-05  6.51501e-06      3.21858 
         -50      1.33333   2.8111e-05  8.48132e-06      3.21857 
         -50      1.61333  4.08898e-05  9.66345e-06      3.21857 
         -50         1.92  5.22525e-05  1.10096e-05      3.21856 
         -50      2.25333   6.2549e-05  1.33967e-05      3.21854 
         -50      2.61333  7.37312e-05  1.80397e-05      3.21853 
         -50            3  8.20579e-05  2.29181e-05       3.2185 
         -25            0           -0           -0      3.12761 
         -25     0.013333  6.79675e-05  5.56193e-09      3.12761 
         -25     0.053333   5.7467e-05  7.76025e-08      3.12761 
         -25         0.12  5.52092e-05  3.90317e-07      3.12761 
         -25     0.213332    4.724e-05  1.15698e-06      3.12761 
         -25     0.333332  3.57148e-05  2.41877e-06      3.12761 
         -25         0.48  2.63637e-05  3.91722e-06      3.12761 
         -25     0.653331  2.11442e-05  5.46013e-06      3.12761 
         -25     0.853332  1.94855e-05  6.96551e-06       3.1276 
         -25         1.08  2.09515e-05  8.19299e-06       3.1276 
         -25      1.33333  2.37459e-05  9.17794e-06       3.1276 
         -25      1.61333  2.79376e-05  9.57499e-06       3.1276 
         -25         1.92  3.77901e-05  9.91169e-06      3.12759 
         -25      2.25333  4.88401e-05  9.21508e-06      3.12759 
         -25      2.61333  5.67833e-05  7.90753e-06      3.12758 
         -25            3   6.1435e-05  7.54636e-06      3.12758 
           0            0            0            0      3.03709 
           0     0.013333  0.000225733 -0.000135532      3.03739 
           0     0.053333  8.53928e-05 -6.11272e-05      3.03756 
           0         0.12  4.69675e-05 -3.48213e-05      3.03776 
           0     0.213332  3.70615e-05 -2.64626e-05      3.03799 
           0     0.333332   3.7491e-05 -2.30252e-05      3.03823 
           0         0.48  3.86884e-05 -2.19899e-05      3.03847 
           0     0.653331  3.92534e-05 -2.25861e-05      3.03872 
           0     0.853332  4.29742e-05  -2.3898e-05      3.03896 
           0         1.08  5.14091e-05 -2.53246e-05       3.0392 
           0      1.33333   6.0099e-05 -2.67379e-05      3.03943 
           0      1.61333  6.70128e-05  -2.7748e-05      3.03966 
           0         1.92  7.10204e-05 -2.86228e-05      3.03988 
           0      2.25333  7.11572e-05  -2.8639e-05      3.04009 
           0      2.61333  6.94586e-05 -2.81708e-05      3.04029 
           0            3  6.69328e-05 -2.69745e-05      3.04049 
          20            0 -0.000144139  0.000363573      2.97966 
          20     0.013333 -0.000127843  0.000362665      2.97966 
          20     0.053333 -7.81779e-05  0.000359191      2.97965 
          20         0.12  5.49348e-06  0.000350722      2.97965 
          20     0.213332  0.000117599  0.000332729      2.97964 
          20     0.333332  0.000236716  0.000298888      2.97963 
          20         0.48  0.000306329  0.000242008      2.97962 
          20     0.653331  0.000325665  0.000161766      2.97961 
          20     0.853332  0.000329152  6.51803e-05       2.9796 
          20         1.08  0.000360111   -3.553e-05      2.97959 
          20      1.33333  0.000431918 -0.000128268      2.97959 
          20      1.61333  0.000503123 -0.000205489       2.9796 
          20         1.92  0.000545106 -0.000261679      2.97962 
          20      2.25333   0.00054657 -0.000295287      2.97964 
          20      2.61333  0.000505451  -0.00030895      2.97967 
          20            3  0.000445835 -0.000305714       2.9797 
          40            0 -2.48795e-19  2.76997e-24      2.91613 
          40     0.013333 -0.000470553 -1.02491e-06      2.91613 
          40     0.053333   -0.0014964 -1.67207e-05      2.91613 
          40         0.12  -0.00188086 -8.22363e-05      2.91613 
          40     0.213332  -0.00132492 -0.000235175      2.91613 
          40     0.333332 -0.000604297 -0.000486592      2.91613 
          40         0.48 -0.000221801 -0.000810544      2.91613 
          40     0.653331  0.000281667  -0.00115692      2.91613 
          40     0.853332  0.000812332  -0.00151791      2.91613 
          40         1.08  0.000751223  -0.00190235      2.91613 
          40      1.33333  0.000539789  -0.00224405      2.91614 
          40      1.61333  0.000426816  -0.00247298      2.91615 
          40         1.92  0.000359833  -0.00255991      2.91616 
          40      2.25333   0.00030163  -0.00250759      2.91618 
          40      2.61333  0.000243653  -0.00234498      2.91619 
          40            3  0.000191898  -0.00211289       2.9162 
          60            0            0            0      2.85081 
          60     0.013333 -0.000281565 -1.18537e-06      2.85081 
          60     0.053333 -0.000862252 -1.78176e-05      2.85081 
          60         0.12  -0.00085741 -7.96172e-05      2.85081 
          60     0.213332 -0.000118075 -0.000207856      2.85081 
          60     0.333332  0.000797775 -0.000399762      2.85081 
          60         0.48   0.00130018 -0.000644939      2.85081 
          60     0.653331   0.00107732 -0.000946138      2.85081 
          60     0.853332  0.000254725  -0.00130128      2.85081 
          60         1.08 -0.000489178  -0.00167195      2.85081 
          60      1.33333 -0.000681221   -0.0020007       2.8508 
          60      1.61333 -0.000512987  -0.00224389      2.85079 
          60         1.92 -0.000381585  -0.00236495      2.85077 
          60      2.25333   -0.0002223  -0.00235998      2.85075 
          60      2.61333 -8.93429e-05  -0.00225213      2.85073 
          60            3 -2.15388e-05  -0.00207294      2.85071 
          80            0            0            0      2.78595 
          80     0.013333 -8.96792e-05 -2.53844e-07      2.78595 
          80     0.053333 -0.000425131 -3.87074e-06      2.78595 
          80         0.12 -0.000677674 -1.77004e-05      2.78595 
          80     0.213332 -0.000743119 -4.76808e-05      2.78595 
          80     0.333332 -0.000698719 -9.49943e-05      2.78595 
          80         0.48 -0.000667784 -0.000157907      2.78595 
          80     0.653331 -0.000742118 -0.000236441      2.78595 
          80     0.853332 -0.000977656 -0.000331881      2.78595 
          80         1.08  -0.00120524 -0.000433323      2.78595 
          80      1.33333  -0.00109898 -0.000514368      2.78595 
          80      1.61333 -0.000756521 -0.000565413      2.78595 
          80         1.92  -0.00040981 -0.000587256      2.78595 
          80      2.25333 -0.000112221 -0.000579351      2.78595 
          80      2.61333  0.000112055 -0.000546989      2.78596 
          80            3  0.000261501 -0.000497472      2.78597 
         100            0           -0           -0      2.72216 
         100     0.013333  -6.1592e-06 -9.79252e-08      2.72216 
         100     0.053333 -0.000152011 -1.67136e-06      2.72216 
         100         0.12  -0.00021636 -8.66129e-06      2.72216 
         100     0.213332 -0.000140006 -2.57698e-05      2.72216 
         100     0.333332  3.94102e-06 -5.43329e-05      2.72216 
         100         0.48  9.93826e-05 -9.12172e-05      2.72216 
         100     0.653331   0.00011429 -0.000131117      2.72216 
         100     0.853332  0.000111878 -0.000168138      2.72216 
         100         1.08  0.000117789 -0.000199821      2.72216 
         100      1.33333  0.000103544 -0.000226076      2.72216 
         100      1.61333  0.000104353 -0.000244044      2.72216 
         100         1.92  0.000106915 -0.000250676      2.72216 
         100      2.25333   0.00010698 -0.000245938      2.72217 
         100      2.61333  0.000102577 -0.000231952      2.72217 
         100            3  9.62232e-05  -0.00021126      2.72218 
         150            0           -0           -0      2.56369 
         150     0.013333  5.82142e-05 -4.21534e-08      2.56369 
         150     0.053333  5.64191e-05 -6.43086e-07      2.56369 
         150         0.12  0.000109306  -3.0154e-06      2.56369 
         150     0.213332  0.000219726 -8.53078e-06      2.56369 
         150     0.333332  0.000362551 -1.78737e-05      2.56369 
         150         0.48  0.000494339 -3.05412e-05      2.56369 
         150     0.653331   0.00058152 -4.54774e-05      2.56369 
         150     0.853332  0.000605943 -6.22482e-05      2.56369 
         150         1.08  0.000558916 -8.12048e-05      2.56369 
         150      1.33333  0.000459794 -0.000101863      2.56369 
         150      1.61333  0.000352445 -0.000121222      2.56369 
         150         1.92  0.000243587 -0.000136424      2.56368 
         150      2.25333  0.000139986 -0.000146587      2.56368 
         150      2.61333    4.894e-05 -0.000151061      2.56368 
         150            3 -1.76844e-05 -0.000149517      2.56367 
         200            0            0            0      2.40623 
         200     0.013333     0.000114 -2.35494e-07      2.40623 
         200     0.053333  0.000293106 -3.32258e-06      2.40623 
         200         0.12  0.000622926 -1.34969e-05      2.40623 
         200     0.213332  0.000969942 -3.11249e-05      2.40623 
         200     0.333332   0.00117841 -5.13713e-05      2.40623 
         200         0.48    0.0012147 -6.96121e-05      2.40623 
         200     0.653331   0.00113172 -8.61616e-05      2.40623 
         200     0.853332  0.000962409 -0.000104185      2.40623 
         200         1.08  0.000753595 -0.000122959      2.40623 
         200      1.33333  0.000574822 -0.000137963      2.40622 
         200      1.61333  0.000410853 -0.000146979      2.40622 
         200         1.92  0.000228663 -0.000150093      2.40621 
         200      2.25333  6.56646e-05 -0.000147112      2.40619 
         200      2.61333 -6.61288e-05 -0.000138243      2.40617 
         200            3 -0.000166431 -0.000124817      2.40615 
         250            0           -0           -0      2.24952 
         250     0.013333  5.28495e-05  3.12651e-07      2.24952 
         250     0.053333 -5.85448e-05  4.62073e-06      2.24952 
         250         0.12 -0.000357889  2.01644e-05      2.24952 
         250     0.213332 -0.000786542  5.09114e-05      2.24952 
         250     0.333332  -0.00113202  9.30664e-05      2.24952 
         250         0.48  -0.00125971  0.000139593      2.24952 
         250     0.653331  -0.00118374  0.000187457      2.24952 
         250     0.853332  -0.00097039  0.000236992      2.24952 
         250         1.08 -0.000726064  0.000284675      2.24952 
         250      1.33333 -0.000549766  0.000323665      2.24952 
         250      1.61333 -0.000400876  0.000351336      2.24952 
         250         1.92 -0.000220327  0.000367144      2.24953 
         250      2.25333 -4.59671e-05  0.000369544      2.24955 
         250      2.61333  0.000102481  0.000358292      2.24956 
         250            3  0.000217747   0.00033493      2.24958 
         300            0           -0           -0      2.09587 
         300     0.013333 -8.46714e-05  3.17798e-07      2.09587 
         300     0.053333 -0.000538465  4.34386e-06      2.09587 
         300         0.12  -0.00120123  1.68446e-05      2.09587 
         300     0.213332  -0.00183959  3.66736e-05      2.09587 
         300     0.333332  -0.00222404  5.64369e-05      2.09587 
         300         0.48  -0.00233741  7.00155e-05      2.09586 
         300     0.653331  -0.00229573  7.82769e-05      2.09586 
         300     0.853332   -0.0021361  8.84444e-05      2.09586 
         300         1.08  -0.00180827  0.000107637      2.09586 
         300      1.33333  -0.00138324  0.000134088      2.09587 
         300      1.61333 -0.000991117  0.000158702      2.09588 
         300         1.92 -0.000595859  0.000177739       2.0959 
         300      2.25333 -0.000215243  0.000190732      2.09592 
         300      2.61333  0.000126943  0.000196499      2.09596 
         300            3  0.000409514  0.000194985        2.096 
         350            0           -0           -0      1.94609 
         350     0.013333  0.000223564 -4.55349e-08      1.94609 
         350     0.053333  0.000639495 -4.24351e-07      1.94609 
         350         0.12   0.00114489 -1.51165e-07      1.94609 
         350     0.213332   0.00149618  5.29959e-06      1.94609 
         350     0.333332   0.00157443  2.22622e-05      1.94609 
         350         0.48   0.00145408  5.39855e-05      1.94609 
         350     0.653331   0.00128359  9.83998e-05      1.94609 
         350     0.853332   0.00113659  0.000150349      1.94609 
         350         1.08   0.00100194  0.000205135      1.94609 
         350      1.33333  0.000856507  0.000259825      1.94609 
         350      1.61333  0.000683787  0.000311495      1.94608 
         350         1.92  0.000483503   0.00035592      1.94607 
         350      2.25333  0.000275538  0.000389476      1.94606 
         350      2.61333  7.76356e-05  0.000409796      1.94604 
         350            3 -9.25711e-05  0.000415648      1.94602 
         400            0            0            0      1.79688 
         400     0.013333  0.000137484 -3.46548e-07      1.79688 
         400     0.053333  0.000411206 -4.94906e-06      1.79688 
         400         0.12  0.000932758  -2.0588e-05      1.79688 
         400     0.213332   0.00152615 -4.92353e-05      1.79688 
         400     0.333332   0.00193156 -8.49858e-05      1.79688 
         400         0.48   0.00204698 -0.000120238      1.79688 
         400     0.653331   0.00194919 -0.000153284      1.79688 
         400     0.853332   0.00171481 -0.000188493      1.79688 
         400         1.08   0.00137286 -0.000229395      1.79688 
         400      1.33333   0.00101964 -0.000272021      1.79688 
         400      1.61333  0.000745759 -0.000308435      1.79687 
         400         1.92   0.00048894 -0.000335366      1.79686 
         400      2.25333  0.000235192 -0.000351871      1.79684 
         400      2.61333 -2.29072e-06 -0.000356657      1.79681 
         400            3  -0.00020537 -0.000349289      1.79677 
         450            0            0            0      1.64774 
         450     0.013333 -0.000270947 -1.80147e-07      1.64774 
         450     0.053333  -0.00107482 -3.14686e-06      1.64774 
         450         0.12  -0.00184759 -1.70972e-05      1.64774 
         450     0.213332  -0.00217059 -5.45875e-05      1.64774 
         450     0.333332  -0.00198568 -0.000125299      1.64774 
         450         0.48  -0.00157111 -0.000229822      1.64774 
         450     0.653331  -0.00123692 -0.000361603      1.64774 
         450     0.853332     -0.00111 -0.000512173      1.64774 
         450         1.08  -0.00110942 -0.000671496      1.64774 
         450      1.33333  -0.00104466 -0.000826603      1.64774 
         450      1.61333 -0.000839606 -0.000966519      1.64774 
         450         1.92 -0.000594707  -0.00108468      1.64775 
         450      2.25333  -0.00034331  -0.00117386      1.64776 
         450      2.61333 -9.58199e-05  -0.00122735      1.64778 
         450            3  0.000129528  -0.00124084      1.64781 
         500            0            0            0      1.50107 
         500     0.013333  0.000253361  3.42459e-07      1.50107 
         500     0.053333  0.000642326  5.33958e-06      1.50107 
         500         0.12  0.000873033  2.53492e-05      1.50107 
         500     0.213332  0.000715589  7.12952e-05      1.50107 
         500     0.333332  0.000293887  0.000146968      1.50107 
         500         0.48 -9.85431e-05  0.000247583      1.50107 
         500     0.653331  -0.00026978  0.000366078      1.50107 
         500     0.853332 -0.000194854  0.000497692      1.50107 
         500         1.08  2.17849e-05  0.000636815      1.50107 
         500      1.33333  0.000192836  0.000773182      1.50107 
         500      1.61333  0.000224738  0.000896331      1.50107 
         500         1.92  0.000208255    0.0010001      1.50107 
         500      2.25333  0.000185361   0.00107862      1.50107 
         500      2.61333  0.000159653   0.00112606      1.50108 
         500            3  0.000129437   0.00113829      1.50108 
         550            0            0            0      1.35526 
         550     0.013333  0.000294153  -1.1069e-07      1.35526 
         550     0.053333  0.000904071 -1.21163e-06      1.35526 
         550         0.12   0.00165289   -2.504e-06      1.35526 
         550     0.213332   0.00218053  2.48714e-06      1.35526 
         550     0.333332   0.00230294  2.29576e-05      1.35526 
         550         0.48   0.00214155  6.29586e-05      1.35526 
         550     0.653331   0.00193962  0.000118228      1.35527 
         550     0.853332   0.00179921  0.000179201      1.35527 
         550         1.08   0.00162215  0.000234839      1.35527 
         550      1.33333   0.00131612  0.000278801      1.35526 
         550      1.61333  0.000976887  0.000314121      1.35526 
         550         1.92  0.000688163  0.000345024      1.35525 
         550      2.25333  0.000413735  0.000369442      1.35523 
         550      2.61333  0.000142942  0.000384827       1.3552 
         550            3  -0.00010214   0.00038956      1.35517 
         600            0            0            0      1.20899 
         600     0.013333 -0.000101627 -2.86591e-07      1.20899 
         600     0.053333  -0.00044445 -4.45863e-06      1.20899 
         600         0.12  -0.00062584 -2.11072e-05      1.20899 
         600     0.213332 -0.000469062  -5.9203e-05      1.20899 
         600     0.333332 -8.20787e-05 -0.000121755      1.20899 
         600         0.48  0.000284362 -0.000204706      1.20899 
         600     0.653331  0.000463743 -0.000302396      1.20899 
         600     0.853332  0.000418698    -0.000412      1.20899 
         600         1.08  0.000204227 -0.000530814      1.20899 
         600      1.33333 -7.54024e-06 -0.000650071      1.20899 
         600      1.61333 -6.18805e-05  -0.00075784      1.20899 
         600         1.92 -4.25178e-05 -0.000848659      1.20899 
         600      2.25333 -2.55233e-05 -0.000919746      1.20899 
         600      2.61333 -1.79629e-05 -0.000966764      1.20898 
         600            3 -6.94035e-06 -0.000985519      1.20898 
         650            0           -0           -0      1.06466 
         650     0.013333  0.000252458 -4.56848e-08      1.06466 
         650     0.053333  0.000753496 -5.00375e-07      1.06466 
         650         0.12   0.00139058 -9.10392e-07      1.06466 
         650     0.213332   0.00188548  2.38268e-06      1.06466 
         650     0.333332   0.00204796  1.59605e-05      1.06466 
         650         0.48    0.0018934  4.51928e-05      1.06466 
         650     0.653331   0.00158563  9.03927e-05      1.06466 
         650     0.853332   0.00127645  0.000147784      1.06466 
         650         1.08   0.00103939  0.000213724      1.06466 
         650      1.33333  0.000892779  0.000286361      1.06466 
         650      1.61333  0.000783599  0.000362005      1.06466 
         650         1.92  0.000632638  0.000434303      1.06465 
         650      2.25333  0.000451432  0.000498308      1.06464 
         650      2.61333  0.000261916  0.000550238      1.06463 
         650            3  7.66637e-05  0.000587005      1.06461 
         700            0           -0           -0     0.917957 
         700     0.013333 -0.000416829  7.38682e-07     0.917957 
         700     0.053333  -0.00189035  1.04887e-05     0.917958 
         700         0.12  -0.00418362  4.32355e-05     0.917958 
         700     0.213332   -0.0066555   0.00010171     0.917957 
         700     0.333332  -0.00845088   0.00016965     0.917956 
         700         0.48   -0.0091755  0.000224253     0.917954 
         700     0.653331  -0.00907356   0.00025506     0.917951 
         700     0.853332  -0.00855024  0.000269377     0.917948 
         700         1.08   -0.0077549   0.00028291     0.917947 
         700      1.33333  -0.00671565  0.000303937     0.917951 
         700      1.61333  -0.00559454  0.000326639     0.917964 
         700         1.92  -0.00448697  0.000342261      0.91799 
         700      2.25333  -0.00331951  0.000349341     0.918034 
         700      2.61333  -0.00208831   0.00034813       0.9181 
         700            3 -0.000863487  0.000338209     0.918188 
         750            0   5.6857e-20  1.42498e-26      0.77966 
         750     0.013333  4.21942e-05 -1.16226e-06      0.77966 
         750     0.053333  0.000352651 -1.73803e-05     0.779659 
         750         0.12   0.00165926 -7.80814e-05     0.779659 
         750     0.213332   0.00398263 -0.000207319     0.779658 
         750     0.333332   0.00651908 -0.000404607     0.779659 
         750         0.48   0.00835096 -0.000647588      0.77966 
         750     0.653331   0.00914458 -0.000913264     0.779663 
         750     0.853332   0.00906007   -0.0011939     0.779665 
         750         1.08   0.00831007  -0.00149365     0.779667 
         750      1.33333   0.00712075  -0.00181048     0.779664 
         750      1.61333   0.00587079  -0.00212488     0.779655 
         750         1.92   0.00476564  -0.00241177     0.779634 
         750      2.25333   0.00364981  -0.00265472     0.779598 
         750      2.61333     0.002464  -0.00284048     0.779543 
         750            3   0.00126844  -0.00295629     0.779467 
         800            0           -0           -0     0.637425 
         800     0.013333   0.00108356  4.51353e-07     0.637425 
         800     0.053333   0.00358673  7.85115e-06     0.637425 
         800         0.12    0.0062089  4.28349e-05     0.637426 
         800     0.213332   0.00757462  0.000138815     0.637427 
         800     0.333332   0.00726654  0.000325629     0.637429 
         800         0.48   0.00595861  0.000610813     0.637431 
         800     0.653331   0.00465452  0.000978886     0.637433 
         800     0.853332   0.00393226   0.00140562     0.637435 
         800         1.08   0.00376691   0.00186722     0.637435 
         800      1.33333   0.00372867   0.00233763     0.637432 
         800      1.61333   0.00341451   0.00278889     0.637424 
         800         1.92   0.00281099   0.00320247     0.637408 
         800      2.25333   0.00212263   0.00356164     0.637381 
         800      2.61333   0.00142743   0.00384823     0.637342 
         800            3  0.000721818   0.00404305     0.637289 
         850            0            0            0     0.492215 
         850     0.013333  -0.00065633  1.11533e-06     0.492215 
         850     0.053333  -0.00289068  1.59366e-05     0.492215 
         850         0.12  -0.00646343  6.65625e-05     0.492216 
         850     0.213332   -0.0104868  0.000160242     0.492215 
         850     0.333332   -0.0136687  0.000276975     0.492214 
         850         0.48   -0.0152843  0.000384581      0.49221 
         850     0.653331   -0.0155579   0.00046455     0.492206 
         850     0.853332   -0.0150819  0.000522495       0.4922 
         850         1.08   -0.0141288  0.000579806     0.492197 
         850      1.33333   -0.0126605  0.000654913       0.4922 
         850      1.61333   -0.0108086  0.000747048     0.492215 
         850         1.92  -0.00889703  0.000839305     0.492247 
         850      2.25333  -0.00693597  0.000919501     0.492305 
         850      2.61333  -0.00488475  0.000982396     0.492395 
         850            3  -0.00277726   0.00102495      0.49252 
         900            0 -4.47384e-19 -6.71094e-26     0.358513 
         900     0.013333 -0.000747446 -9.11384e-07     0.358513 
         900     0.053333   -0.0025708 -1.44351e-05     0.358513 
         900         0.12  -0.00401206 -7.04136e-05     0.358512 
         900     0.213332  -0.00401025  -0.00020548     0.358511 
         900     0.333332  -0.00262078 -0.000441558      0.35851 
         900         0.48 -0.000794502 -0.000773403     0.358509 
         900     0.653331  0.000533362  -0.00117875     0.358508 
         900     0.853332  0.000981425   -0.0016372     0.358508 
         900         1.08  0.000649624  -0.00213458     0.358508 
         900      1.33333 -1.93163e-05  -0.00265108     0.358509 
         900      1.61333 -0.000448851  -0.00315529      0.35851 
         900         1.92 -0.000464588  -0.00361923     0.358512 
         900      2.25333 -0.000357545   -0.0040254     0.358513 
         900      2.61333 -0.000269313  -0.00435623     0.358516 
         900            3 -0.000174518   -0.0045922     0.358519 
         950            0            0            0     0.225137 
         950     0.013333  0.000748189 -5.22938e-07     0.225137 
         950     0.053333   0.00270112  -7.0889e-06     0.225137 
         950         0.12   0.00548904 -2.69289e-05     0.225137 
         950     0.213332   0.00822851 -5.55779e-05     0.225138 
         950     0.333332    0.0100678 -7.44979e-05     0.225139 
         950         0.48    0.0107657 -6.44429e-05     0.225142 
         950     0.653331    0.0107103  -1.9453e-05     0.225145 
         950     0.853332     0.010398  5.12486e-05     0.225149 
         950         1.08   0.00997229  0.000129052     0.225152 
         950      1.33333   0.00922465  0.000193486     0.225151 
         950      1.61333   0.00803346  0.000233695     0.225142 
         950         1.92   0.00665822  0.000256882     0.225122 
         950      2.25333   0.00526994  0.000272584     0.225085 
         950      2.61333   0.00386673  0.000283037     0.225026 
         950            3   0.00240558  0.000286423     0.224943 
        1000            0           -0           -0    0.0861276 
        1000     0.013333  0.000405801  4.48125e-07    0.0861277 
        1000     0.053333   0.00115253  6.98574e-06    0.0861279 
        1000         0.12   0.00170255  3.34335e-05    0.0861282 
        1000     0.213332   0.00159205  9.57996e-05    0.0861285 
        1000     0.333332  0.000882849  0.000202846    0.0861289 
        1000         0.48  1.55007e-05  0.000351596    0.0861291 
        1000     0.653331 -0.000608268  0.000532448     0.086129 
        1000     0.853332 -0.000835883  0.000737464    0.0861287 
        1000         1.08 -0.000691411  0.000962957    0.0861283 
        1000      1.33333 -0.000317632   0.00120344    0.0861279 
        1000      1.61333   3.5108e-05   0.00144541    0.0861279 
        1000         1.92  0.000160276   0.00167305    0.0861287 
        1000      2.25333  0.000172573   0.00187506    0.0861305 
        1000      2.61333  0.000174507   0.00204397    0.0861336 
        1000            3  0.000184904   0.00217164    0.0861381 
