Variables = x, y, u, v, p

Zone, I=416, F=POINT
         -50            0            0            0      137.564 
         -50     0.013333  6.04356e-05  2.20833e-08      137.564 
         -50     0.053333  4.16308e-05  1.71237e-08      137.564 
         -50         0.12  2.57206e-05 -5.51881e-08      137.564 
         -50     0.213332  1.28675e-05 -2.83783e-07      137.564 
         -50     0.333332  3.07698e-06 -4.38948e-07      137.564 
         -50         0.48 -4.27713e-06 -1.19884e-06      137.564 
         -50     0.653331  -9.2781e-06 -1.91973e-06      137.564 
         -50     0.853332 -9.17519e-06 -2.63034e-06      137.563 
         -50         1.08 -1.41167e-06 -3.99053e-06      137.563 
         -50      1.33333  1.06972e-05 -4.06914e-06      137.562 
         -50      1.61333  2.39424e-05 -4.36488e-06      137.562 
         -50         1.92  4.32594e-05 -4.22509e-06      137.561 
         -50      2.25333  5.40427e-05  -3.4827e-06       137.56 
         -50      2.61333  6.05172e-05 -2.99245e-07      137.558 
         -50            3  7.14824e-05  6.06064e-06      137.556 
         -25            0           -0           -0      133.919 
         -25     0.013333  4.28819e-05  1.28792e-09      133.919 
         -25     0.053333  8.42302e-06 -1.07264e-07      133.919 
         -25         0.12 -1.70571e-05 -7.25223e-07      133.919 
         -25     0.213332 -2.23633e-05 -2.49891e-06      133.919 
         -25     0.333332 -1.28943e-05 -5.83376e-06      133.919 
         -25         0.48 -2.69182e-06 -1.05324e-05      133.919 
         -25     0.653331  1.47108e-06 -1.60624e-05      133.919 
         -25     0.853332  4.95286e-06 -2.17515e-05      133.919 
         -25         1.08  1.36505e-05 -2.67201e-05      133.919 
         -25      1.33333  2.45619e-05 -3.06184e-05      133.919 
         -25      1.61333  3.47972e-05 -3.31017e-05      133.919 
         -25         1.92  4.26167e-05 -3.38393e-05      133.918 
         -25      2.25333   4.7987e-05 -3.24055e-05      133.918 
         -25      2.61333  5.33862e-05  -2.8926e-05      133.918 
         -25            3  5.87492e-05 -2.47365e-05      133.917 
           0            0            0            0      130.427 
           0     0.013333  6.78283e-05 -9.39496e-05      130.431 
           0     0.053333  8.13426e-05 -4.20915e-05      130.438 
           0         0.12  7.96638e-05 -3.53595e-05      130.447 
           0     0.213332  8.42171e-05 -2.82417e-05      130.455 
           0     0.333332  8.90733e-05 -2.57632e-05      130.464 
           0         0.48  9.10866e-05  -2.5317e-05      130.474 
           0     0.653331  8.89644e-05 -2.64548e-05      130.483 
           0     0.853332  8.17172e-05 -2.87705e-05      130.492 
           0         1.08  7.35012e-05 -3.17527e-05      130.501 
           0      1.33333  6.89832e-05 -3.46365e-05      130.509 
           0      1.61333  6.59984e-05 -3.68608e-05      130.518 
           0         1.92  6.33292e-05 -3.84516e-05      130.526 
           0      2.25333  6.13783e-05 -3.91753e-05      130.534 
           0      2.61333  5.08601e-05 -4.05246e-05      130.542 
           0            3   3.6753e-05 -3.94362e-05      130.549 
          20            0  0.000148567  7.88511e-05      128.222 
          20     0.013333  0.000157815  7.82622e-05      128.222 
          20     0.053333  0.000186625  7.62183e-05      128.222 
          20         0.12  0.000237381  7.18002e-05      128.222 
          20     0.213332  0.000310236  6.32684e-05      128.222 
          20     0.333332  0.000395971   4.8209e-05      128.222 
          20         0.48  0.000459765  2.33117e-05      128.221 
          20     0.653331   0.00048672 -1.15907e-05      128.221 
          20     0.853332  0.000479043 -5.34265e-05      128.221 
          20         1.08  0.000450797 -9.68378e-05      128.221 
          20      1.33333  0.000414182 -0.000136335       128.22 
          20      1.61333  0.000365046 -0.000168064       128.22 
          20         1.92  0.000306935 -0.000189082      128.219 
          20      2.25333  0.000243211 -0.000199281      128.219 
          20      2.61333  0.000182567 -0.000199081      128.218 
          20            3  0.000139668 -0.000188698      128.217 
          40            0 -1.31475e-19  1.89942e-23      125.775 
          40     0.013333 -0.000306533 -5.64305e-07      125.775 
          40     0.053333  -0.00102773 -9.37808e-06      125.775 
          40         0.12  -0.00138943 -4.67066e-05      125.775 
          40     0.213332  -0.00111732  -0.00013667      125.775 
          40     0.333332 -0.000608145  -0.00029046      125.775 
          40         0.48 -0.000192411  -0.00049632      125.775 
          40     0.653331  0.000272928 -0.000728683      125.775 
          40     0.853332  0.000640822 -0.000985354      125.775 
          40         1.08  0.000601895  -0.00126487      125.775 
          40      1.33333  0.000456979  -0.00152118      125.774 
          40      1.61333  0.000367064  -0.00170584      125.774 
          40         1.92  0.000306577  -0.00179515      125.774 
          40      2.25333  0.000259136  -0.00178689      125.773 
          40      2.61333  0.000220416  -0.00169836      125.773 
          40            3  0.000188155  -0.00155663      125.772 
          60            0            0            0      123.233 
          60     0.013333 -0.000351647 -3.58557e-07      123.233 
          60     0.053333  -0.00126154 -6.14618e-06      123.233 
          60         0.12  -0.00201006 -3.18856e-05      123.233 
          60     0.213332   -0.0021858 -9.55219e-05      123.233 
          60     0.333332  -0.00194713 -0.000205981      123.233 
          60         0.48  -0.00173371 -0.000361765      123.233 
          60     0.653331  -0.00185564 -0.000558366      123.233 
          60     0.853332  -0.00222789 -0.000782198      123.233 
          60         1.08  -0.00235867  -0.00100181      123.233 
          60      1.33333  -0.00195534  -0.00118418      123.233 
          60      1.61333  -0.00123937  -0.00131467      123.233 
          60         1.92 -0.000506699  -0.00137477      123.233 
          60      2.25333    8.657e-05  -0.00136243      123.233 
          60      2.61333  0.000473113  -0.00129412      123.233 
          60            3  0.000684342  -0.00118742      123.233 
          80            0            0            0       120.73 
          80     0.013333 -0.000161563  3.29456e-08       120.73 
          80     0.053333 -0.000701522 -9.50563e-08       120.73 
          80         0.12  -0.00128412 -3.94932e-06       120.73 
          80     0.213332   -0.0016462 -2.01124e-05       120.73 
          80     0.333332  -0.00176336 -5.60083e-05       120.73 
          80         0.48   -0.0018195 -0.000111212       120.73 
          80     0.653331  -0.00191083 -0.000175255       120.73 
          80     0.853332   -0.0018405 -0.000228013       120.73 
          80         1.08   -0.0014666 -0.000257581       120.73 
          80      1.33333  -0.00102394 -0.000270422       120.73 
          80      1.61333 -0.000618736 -0.000274127       120.73 
          80         1.92 -0.000206742 -0.000266402       120.73 
          80      2.25333   0.00013668 -0.000247082       120.73 
          80      2.61333  0.000382843  -0.00021999       120.73 
          80            3  0.000535224 -0.000188341       120.73 
         100            0           -0           -0      118.234 
         100     0.013333  2.82219e-05 -2.44286e-07      118.234 
         100     0.053333   3.0892e-05 -3.71384e-06      118.234 
         100         0.12  0.000190463 -1.67297e-05      118.234 
         100     0.213332   0.00048222  -4.3405e-05      118.234 
         100     0.333332  0.000741465 -8.11745e-05      118.234 
         100         0.48  0.000837053  -0.00012448      118.234 
         100     0.653331  0.000748657 -0.000169861      118.234 
         100     0.853332  0.000597337 -0.000210977      118.234 
         100         1.08  0.000579937  -0.00023646      118.234 
         100      1.33333  0.000562853 -0.000248986      118.234 
         100      1.61333    0.0004023 -0.000257764      118.234 
         100         1.92  0.000234167 -0.000257049      118.234 
         100      2.25333  0.000100461 -0.000244503      118.234 
         100      2.61333 -4.75758e-06 -0.000222606      118.234 
         100            3 -8.02853e-05 -0.000194596      118.234 
         150            0           -0           -0      111.995 
         150     0.013333   -7.952e-05 -1.93792e-07      111.995 
         150     0.053333 -0.000357568 -3.16713e-06      111.995 
         150         0.12 -0.000517698 -1.58374e-05      111.995 
         150     0.213332 -0.000412532 -4.64189e-05      111.995 
         150     0.333332 -0.000134645 -9.82889e-05      111.995 
         150         0.48  0.000113524 -0.000168078      111.995 
         150     0.653331   0.00021461 -0.000249711      111.995 
         150     0.853332  0.000188526 -0.000336707      111.995 
         150         1.08  0.000137276 -0.000421346      111.995 
         150      1.33333  0.000116559  -0.00049664      111.995 
         150      1.61333  0.000101082 -0.000558055      111.995 
         150         1.92  8.63639e-05 -0.000598446      111.995 
         150      2.25333  8.45043e-05 -0.000613787      111.995 
         150      2.61333   7.9902e-05 -0.000605199      111.995 
         150            3  6.66327e-05 -0.000576115      111.995 
         200            0            0            0      105.751 
         200     0.013333  0.000192235 -2.78198e-08      105.751 
         200     0.053333  0.000526233  8.95283e-08      105.751 
         200         0.12  0.000837558  3.52013e-06      105.751 
         200     0.213332  0.000908437  1.79799e-05      105.751 
         200     0.333332   0.00074712  4.96024e-05      105.751 
         200         0.48  0.000547683  9.62784e-05      105.751 
         200     0.653331  0.000434965  0.000149099      105.751 
         200     0.853332  0.000347968  0.000197194      105.751 
         200         1.08  0.000197272  0.000233855      105.751 
         200      1.33333  4.91245e-05  0.000260823      105.751 
         200      1.61333 -3.63764e-05  0.000281988      105.751 
         200         1.92 -9.77192e-05  0.000294632      105.751 
         200      2.25333 -0.000142731  0.000296163      105.751 
         200      2.61333 -0.000168552  0.000287389      105.751 
         200            3 -0.000174012  0.000269461      105.751 
         250            0           -0           -0      99.4939 
         250     0.013333  0.000274564  5.45617e-07      99.4939 
         250     0.053333  0.000692768  8.36915e-06      99.4939 
         250         0.12   0.00083917  3.87333e-05      99.4939 
         250     0.213332  0.000500966  0.000105761      99.4939 
         250     0.333332  -9.3753e-05  0.000212147      99.4939 
         250         0.48  -0.00058568  0.000350558      99.4939 
         250     0.653331 -0.000772705  0.000513587      99.4939 
         250     0.853332 -0.000627497  0.000696626      99.4939 
         250         1.08 -0.000316905    0.0008885      99.4939 
         250      1.33333  -0.00011988   0.00106835      99.4939 
         250      1.61333 -6.36114e-05   0.00121948      99.4939 
         250         1.92  4.87719e-06   0.00133105      99.4939 
         250      2.25333  6.26506e-05   0.00139408      99.4939 
         250      2.61333  0.000103918   0.00140467       99.494 
         250            3  0.000136297   0.00136474       99.494 
         300            0           -0           -0       93.215 
         300     0.013333  5.41108e-05 -4.01028e-07       93.215 
         300     0.053333  0.000173816 -6.03879e-06       93.215 
         300         0.12  0.000618368 -2.72701e-05       93.215 
         300     0.213332   0.00135821 -7.22425e-05       93.215 
         300     0.333332   0.00210042  -0.00013944       93.215 
         300         0.48   0.00256803  -0.00021942       93.215 
         300     0.653331   0.00270257 -0.000303529       93.215 
         300     0.853332   0.00258434 -0.000388213       93.215 
         300         1.08   0.00231142 -0.000471384       93.215 
         300      1.33333   0.00196512 -0.000549268       93.215 
         300      1.61333   0.00157439 -0.000616915       93.215 
         300         1.92    0.0011235 -0.000668632       93.215 
         300      2.25333  0.000667517 -0.000699549       93.215 
         300      2.61333  0.000241366 -0.000706685      93.2149 
         300            3 -0.000125867 -0.000689939      93.2149 
         350            0           -0           -0      86.9135 
         350     0.013333  -0.00040498   8.4473e-08      86.9135 
         350     0.053333  -0.00159695  5.22291e-07      86.9135 
         350         0.12  -0.00298801 -2.45489e-06      86.9135 
         350     0.213332  -0.00397213 -2.11386e-05      86.9135 
         350     0.333332   -0.0042864 -7.02228e-05      86.9135 
         350         0.48  -0.00414195 -0.000155971      86.9135 
         350     0.653331  -0.00390399 -0.000273502      86.9135 
         350     0.853332  -0.00372825 -0.000410377      86.9135 
         350         1.08  -0.00347551 -0.000549397      86.9135 
         350      1.33333  -0.00297687 -0.000675016      86.9135 
         350      1.61333  -0.00230719 -0.000782022      86.9135 
         350         1.92  -0.00158734 -0.000867506      86.9136 
         350      2.25333 -0.000861576 -0.000924916      86.9136 
         350      2.61333 -0.000172651 -0.000950381      86.9137 
         350            3  0.000422307 -0.000942458      86.9137 
         400            0            0            0      80.6033 
         400     0.013333  0.000443187 -4.10074e-09      80.6033 
         400     0.053333   0.00143204   4.8678e-07      80.6033 
         400         0.12    0.0025541  5.91213e-06      80.6033 
         400     0.213332   0.00326705   2.7827e-05      80.6033 
         400     0.333332   0.00333897   8.0011e-05      80.6033 
         400         0.48   0.00297321  0.000168664      80.6033 
         400     0.653331   0.00252946  0.000289047      80.6033 
         400     0.853332   0.00220289  0.000430575      80.6033 
         400         1.08    0.0019711  0.000582307      80.6033 
         400      1.33333   0.00172279  0.000734188      80.6033 
         400      1.61333   0.00138853  0.000876544      80.6033 
         400         1.92  0.000996141  0.000999618      80.6033 
         400      2.25333  0.000584721   0.00109449      80.6033 
         400      2.61333  0.000186936   0.00115416      80.6032 
         400            3 -0.000163136   0.00117437      80.6032 
         450            0            0            0      74.2791 
         450     0.013333 -0.000373324 -5.94836e-07      74.2791 
         450     0.053333  -0.00130742 -9.38184e-06      74.2791 
         450         0.12   -0.0019811 -4.52134e-05      74.2791 
         450     0.213332  -0.00189998 -0.000129195      74.2791 
         450     0.333332  -0.00122247 -0.000270555      74.2791 
         450         0.48 -0.000478832 -0.000462851      74.2791 
         450     0.653331 -7.31961e-05 -0.000694347      74.2791 
         450     0.853332 -0.000116993 -0.000955953      74.2791 
         450         1.08 -0.000438376  -0.00123497      74.2791 
         450      1.33333 -0.000658906  -0.00150831      74.2791 
         450      1.61333 -0.000602113  -0.00175372      74.2791 
         450         1.92 -0.000468849  -0.00195882      74.2791 
         450      2.25333 -0.000324089  -0.00211127      74.2791 
         450      2.61333 -0.000174406  -0.00219957      74.2791 
         450            3  -3.0176e-05  -0.00221646      74.2791 
         500            0            0            0       67.947 
         500     0.013333 -4.90498e-06  -1.4654e-07       67.947 
         500     0.053333 -0.000100854 -2.41555e-06       67.947 
         500         0.12 -4.02381e-05 -1.22112e-05       67.947 
         500     0.213332  0.000270558 -3.60683e-05       67.947 
         500     0.333332  0.000712836 -7.62339e-05       67.947 
         500         0.48   0.00106241 -0.000128357       67.947 
         500     0.653331   0.00119258 -0.000185616       67.947 
         500     0.853332   0.00113315 -0.000242545       67.947 
         500         1.08   0.00101856 -0.000293485       67.947 
         500      1.33333  0.000968998 -0.000332842       67.947 
         500      1.61333  0.000936154 -0.000361092       67.947 
         500         1.92  0.000822989 -0.000381831       67.947 
         500      2.25333  0.000662278 -0.000394068       67.947 
         500      2.61333  0.000484315 -0.000396063       67.947 
         500            3  0.000300771 -0.000386841       67.947 
         550            0            0            0      61.6069 
         550     0.013333  4.26211e-06  2.09439e-07      61.6069 
         550     0.053333 -0.000179183  2.93355e-06      61.6069 
         550         0.12 -0.000498385  1.19014e-05      61.6069 
         550     0.213332 -0.000863183  2.78758e-05      61.6069 
         550     0.333332    -0.001146  4.78376e-05      61.6069 
         550         0.48  -0.00130947   6.8829e-05      61.6069 
         550     0.653331  -0.00139568  9.13529e-05      61.6069 
         550     0.853332  -0.00141051  0.000119531      61.6069 
         550         1.08  -0.00128114  0.000158932      61.6069 
         550      1.33333 -0.000996393  0.000210483      61.6069 
         550      1.61333 -0.000703721  0.000266176      61.6069 
         550         1.92 -0.000478981  0.000317348      61.6069 
         550      2.25333 -0.000272853   0.00036074      61.6069 
         550      2.61333 -6.82276e-05  0.000394197      61.6069 
         550            3   0.00011768  0.000415704      61.6069 
         600            0            0            0      55.2599 
         600     0.013333  5.97369e-05  3.60261e-07      55.2599 
         600     0.053333 -4.61918e-05  5.42664e-06      55.2599 
         600         0.12 -0.000455805  2.45642e-05      55.2599 
         600     0.213332  -0.00117681  6.55028e-05      55.2599 
         600     0.333332  -0.00194738  0.000127751      55.2599 
         600         0.48  -0.00247648  0.000203458      55.2599 
         600     0.653331  -0.00266831  0.000284901      55.2599 
         600     0.853332  -0.00258219  0.000369493      55.2599 
         600         1.08  -0.00230627  0.000457285      55.2599 
         600      1.33333  -0.00195585   0.00054473      55.2599 
         600      1.61333  -0.00163728   0.00062472      55.2599 
         600         1.92  -0.00132035  0.000692565      55.2599 
         600      2.25333 -0.000968946  0.000745245        55.26 
         600      2.61333 -0.000593044  0.000779219        55.26 
         600            3 -0.000223233  0.000791254        55.26 
         650            0           -0           -0      48.9063 
         650     0.013333 -0.000109371 -3.72063e-07      48.9063 
         650     0.053333 -0.000425903 -5.72109e-06      48.9063 
         650         0.12 -0.000514584  -2.6769e-05      48.9063 
         650     0.213332  -0.00017343 -7.45584e-05      48.9063 
         650     0.333332  0.000452314 -0.000153089      48.9063 
         650         0.48   0.00104399 -0.000257691      48.9063 
         650     0.653331   0.00138789 -0.000380736      48.9063 
         650     0.853332   0.00144311 -0.000517385      48.9063 
         650         1.08   0.00126356 -0.000665031      48.9063 
         650      1.33333  0.000977764 -0.000818016      48.9063 
         650      1.61333  0.000743126 -0.000965909      48.9063 
         650         1.92  0.000582955   -0.0010988      48.9063 
         650      2.25333  0.000433148  -0.00120961      48.9063 
         650      2.61333  0.000274415  -0.00129139      48.9063 
         650            3  0.000121179  -0.00133801      48.9063 
         700            0           -0           -0      42.5435 
         700     0.013333  0.000230971   3.0523e-07      42.5435 
         700     0.053333  0.000583696  4.81352e-06      42.5435 
         700         0.12  0.000755873  2.32343e-05      42.5435 
         700     0.213332  0.000516508  6.65749e-05      42.5435 
         700     0.333332 -1.08221e-05  0.000139462      42.5435 
         700         0.48 -0.000496483   0.00023708      42.5435 
         700     0.653331  -0.00071177  0.000350503      42.5435 
         700     0.853332 -0.000640109  0.000472946      42.5435 
         700         1.08 -0.000405494  0.000599259      42.5435 
         700      1.33333 -0.000191695  0.000722087      42.5435 
         700      1.61333 -0.000108695  0.000833497      42.5435 
         700         1.92 -8.75211e-05  0.000929575      42.5435 
         700      2.25333 -6.03655e-05   0.00100673      42.5435 
         700      2.61333  -2.0054e-05   0.00106047      42.5435 
         700            3  1.89999e-05   0.00108631      42.5435 
         750            0 -7.86914e-20 -6.76021e-26      36.1737 
         750     0.013333 -0.000350095 -5.09737e-07      36.1737 
         750     0.053333  -0.00123351 -8.15401e-06      36.1737 
         750         0.12  -0.00182896 -4.02094e-05      36.1737 
         750     0.213332  -0.00157817 -0.000118208      36.1737 
         750     0.333332 -0.000586277 -0.000254508      36.1737 
         750         0.48  0.000544479 -0.000444314      36.1737 
         750     0.653331   0.00128107 -0.000672386      36.1737 
         750     0.853332   0.00146422 -0.000924748      36.1737 
         750         1.08   0.00124059  -0.00119055      36.1737 
         750      1.33333  0.000926694  -0.00145582      36.1737 
         750      1.61333  0.000773254  -0.00170454      36.1737 
         750         1.92  0.000716199  -0.00192714      36.1737 
         750      2.25333  0.000637822   -0.0021152      36.1737 
         750      2.61333  0.000523345  -0.00225833      36.1737 
         750            3  0.000400227  -0.00234567      36.1737 
         800            0           -0           -0      29.7929 
         800     0.013333  0.000848069 -1.34865e-07      29.7929 
         800     0.053333   0.00294457 -1.15693e-06      29.7929 
         800         0.12   0.00555145  6.54478e-07      29.7929 
         800     0.213332   0.00762282  2.10108e-05      29.7929 
         800     0.333332    0.0085015  8.28259e-05      29.7929 
         800         0.48   0.00831658   0.00020094      29.7929 
         800     0.653331   0.00769156  0.000373234      29.7929 
         800     0.853332    0.0071402  0.000585106      29.7929 
         800         1.08   0.00674336  0.000816944      29.7929 
         800      1.33333    0.0062452   0.00104809      29.7929 
         800      1.61333   0.00544824   0.00126228      29.7929 
         800         1.92   0.00446204   0.00145535      29.7929 
         800      2.25333   0.00341351   0.00162292      29.7928 
         800      2.61333   0.00233528   0.00175724      29.7928 
         800            3   0.00123678   0.00184917      29.7927 
         850            0            0            0      23.3876 
         850     0.013333 -9.11154e-05  1.05997e-06      23.3876 
         850     0.053333 -0.000821257  1.57333e-05      23.3876 
         850         0.12  -0.00255986  6.98763e-05      23.3876 
         850     0.213332  -0.00515155  0.000182798      23.3876 
         850     0.333332   -0.0077354  0.000350401      23.3876 
         850         0.48  -0.00945602   0.00054944      23.3876 
         850     0.653331   -0.0100839  0.000758401      23.3876 
         850     0.853332  -0.00986724  0.000971948      23.3876 
         850         1.08  -0.00906702   0.00119661      23.3876 
         850      1.33333  -0.00788803   0.00143425      23.3876 
         850      1.61333  -0.00661873   0.00167282      23.3876 
         850         1.92  -0.00543584   0.00189378      23.3876 
         850      2.25333  -0.00424386   0.00208475      23.3877 
         850      2.61333  -0.00298374   0.00223558      23.3877 
         850            3  -0.00168848    0.0023365      23.3878 
         900            0  -4.9859e-19 -5.24235e-26      16.9743 
         900     0.013333 -0.000824459 -6.60584e-07      16.9743 
         900     0.053333  -0.00290648 -1.08438e-05      16.9743 
         900         0.12  -0.00484254 -5.52835e-05      16.9743 
         900     0.213332  -0.00546312 -0.000168222      16.9743 
         900     0.333332  -0.00462528 -0.000374121      16.9743 
         900         0.48  -0.00315654 -0.000672268      16.9743 
         900     0.653331  -0.00201155  -0.00104277      16.9743 
         900     0.853332  -0.00163743  -0.00146378      16.9743 
         900         1.08  -0.00192001   -0.0019162      16.9743 
         900      1.33333  -0.00233165  -0.00237449      16.9743 
         900      1.61333  -0.00232596  -0.00280795      16.9743 
         900         1.92  -0.00193118  -0.00319872      16.9743 
         900      2.25333  -0.00146627  -0.00353723      16.9743 
         900      2.61333  -0.00103294  -0.00381005      16.9743 
         900            3 -0.000587033  -0.00399995      16.9744 
         950            0            0            0      10.5532 
         950     0.013333  0.000743739 -3.66396e-07      10.5532 
         950     0.053333   0.00264301 -4.67957e-06      10.5532 
         950         0.12   0.00520583 -1.56502e-05      10.5532 
         950     0.213332   0.00753204 -2.43118e-05      10.5532 
         950     0.333332   0.00889642  -1.1267e-05      10.5532 
         950         0.48    0.0092431  3.89694e-05      10.5532 
         950     0.653331   0.00906089  0.000127203      10.5532 
         950     0.853332   0.00882558  0.000241127      10.5532 
         950         1.08   0.00859143   0.00036059      10.5532 
         950      1.33333   0.00803194  0.000462382      10.5532 
         950      1.61333   0.00695988   0.00053309      10.5532 
         950         1.92   0.00570123  0.000581459      10.5532 
         950      2.25333   0.00447049   0.00061818      10.5532 
         950      2.61333   0.00325522  0.000644719      10.5531 
         950            3   0.00199149  0.000657431       10.553 
        1000            0           -0           -0      4.11869 
        1000     0.013333 -3.61528e-06  2.52273e-07      4.11869 
        1000     0.053333 -0.000221566  3.55733e-06      4.11869 
        1000         0.12 -0.000592538  1.44248e-05      4.11869 
        1000     0.213332 -0.000984792  3.33476e-05      4.11869 
        1000     0.333332  -0.00121762  5.52555e-05      4.11869 
        1000         0.48  -0.00125628  7.48855e-05      4.11869 
        1000     0.653331  -0.00121856  9.25899e-05      4.11869 
        1000     0.853332  -0.00118929  0.000114827      4.11869 
        1000         1.08  -0.00108676   0.00015114      4.11869 
        1000      1.33333 -0.000765297  0.000208675      4.11869 
        1000      1.61333 -0.000294618  0.000283496      4.11869 
        1000         1.92  2.47636e-05  0.000359606      4.11869 
        1000      2.25333  0.000189925  0.000428078      4.11871 
        1000      2.61333  0.000297692  0.000485564      4.11872 
        1000            3  0.000401607   0.00053122      4.11875 
