Variables = x, y, u, v, p

Zone, I=416, F=POINT
         -50            0            0            0      143.864 
         -50     0.013333 -3.77761e-06  1.31286e-08      143.864 
         -50     0.053333  8.06804e-06 -6.14797e-08      143.864 
         -50         0.12  2.19229e-05 -2.20788e-07      143.864 
         -50     0.213332  3.30983e-05 -2.87912e-07      143.864 
         -50     0.333332  3.84614e-05 -1.18864e-07      143.864 
         -50         0.48   3.9291e-05  1.68782e-07      143.864 
         -50     0.653331  3.86817e-05  1.44537e-06      143.864 
         -50     0.853332  3.57869e-05  2.89686e-06      143.863 
         -50         1.08   2.8663e-05  4.46406e-06      143.863 
         -50      1.33333  1.78105e-05  5.81368e-06      143.862 
         -50      1.61333  6.55129e-06  6.98464e-06      143.862 
         -50         1.92 -5.72386e-06  8.52037e-06      143.861 
         -50      2.25333 -1.08788e-05  9.62915e-06      143.859 
         -50      2.61333 -6.63025e-06  1.26145e-05      143.858 
         -50            3 -1.93433e-07  1.81292e-05      143.856 
         -25            0           -0           -0      140.066 
         -25     0.013333 -3.17538e-06  1.28738e-08      140.066 
         -25     0.053333  4.79233e-06  1.18794e-07      140.066 
         -25         0.12  1.06671e-05  5.14034e-07      140.066 
         -25     0.213332  1.48607e-05  1.32126e-06      140.066 
         -25     0.333332  2.04481e-05     2.51e-06      140.066 
         -25         0.48  2.81706e-05  3.98778e-06      140.066 
         -25     0.653331  3.62773e-05  5.59343e-06      140.066 
         -25     0.853332  3.98254e-05   7.1626e-06      140.066 
         -25         1.08  3.49096e-05  8.51273e-06      140.066 
         -25      1.33333  2.44724e-05  9.29026e-06      140.066 
         -25      1.61333  1.25584e-05  9.64834e-06      140.066 
         -25         1.92 -1.32421e-06  9.12009e-06      140.065 
         -25      2.25333 -1.49528e-05  8.38377e-06      140.065 
         -25      2.61333 -1.86855e-05  9.68044e-06      140.065 
         -25            3 -1.05469e-05  1.37881e-05      140.064 
           0            0            0            0      136.427 
           0     0.013333 -0.000169294  2.96864e-05      136.431 
           0     0.053333 -4.99614e-05  2.36261e-05      136.439 
           0         0.12 -2.68292e-05  6.90201e-06      136.448 
           0     0.213332 -1.22958e-05  5.41114e-06      136.457 
           0     0.333332  8.65485e-07  1.83362e-06      136.466 
           0         0.48  7.79258e-06 -2.50904e-06      136.476 
           0     0.653331  8.34505e-06 -7.57409e-06      136.485 
           0     0.853332  5.89039e-06 -1.29519e-05      136.495 
           0         1.08  5.47275e-06 -1.80425e-05      136.504 
           0      1.33333   5.9575e-06 -2.25485e-05      136.513 
           0      1.61333  3.37646e-06  -2.5936e-05      136.522 
           0         1.92  7.26313e-08 -2.80096e-05      136.531 
           0      2.25333 -3.26307e-06 -2.86819e-05      136.539 
           0      2.61333 -1.05795e-05 -2.93456e-05      136.547 
           0            3 -2.00929e-05 -3.06771e-05      136.554 
          20            0  6.34087e-05  5.71842e-06      134.129 
          20     0.013333  8.08392e-05  4.38547e-06      134.129 
          20     0.053333  0.000135035  5.55231e-08      134.129 
          20         0.12  0.000230492 -8.36451e-06      134.129 
          20     0.213332  0.000368653 -2.31617e-05      134.129 
          20     0.333332  0.000536574 -4.75754e-05      134.128 
          20         0.48  0.000675887  -8.6473e-05      134.128 
          20     0.653331  0.000744494 -0.000140747      134.128 
          20     0.853332  0.000733145 -0.000206211      134.128 
          20         1.08  0.000668142 -0.000273848      134.127 
          20      1.33333  0.000585848 -0.000332971      134.127 
          20      1.61333  0.000490029 -0.000375749      134.127 
          20         1.92  0.000384759 -0.000398402      134.126 
          20      2.25333  0.000280045 -0.000399916      134.125 
          20      2.61333  0.000191861 -0.000385136      134.125 
          20            3  0.000117544 -0.000361852      134.124 
          40            0 -1.13746e-20  1.95328e-23       131.58 
          40     0.013333 -1.47397e-05 -1.49234e-06       131.58 
          40     0.053333  0.000319881 -2.17239e-05       131.58 
          40         0.12   0.00140442 -9.19658e-05       131.58 
          40     0.213332   0.00280682 -0.000226493       131.58 
          40     0.333332    0.0036479 -0.000415688       131.58 
          40         0.48   0.00369252 -0.000643845       131.58 
          40     0.653331   0.00367933 -0.000878531       131.58 
          40     0.853332   0.00387972   -0.0010918       131.58 
          40         1.08   0.00341108  -0.00130069       131.58 
          40      1.33333   0.00236772  -0.00148882      131.579 
          40      1.61333   0.00124842  -0.00160859      131.579 
          40         1.92  0.000271321  -0.00163823      131.578 
          40      2.25333 -0.000460703  -0.00158054      131.578 
          40      2.61333 -0.000901298  -0.00145456      131.577 
          40            3  -0.00107238  -0.00128732      131.576 
          60            0            0            0      128.932 
          60     0.013333  0.000393645 -1.63943e-06      128.932 
          60     0.053333   0.00173814 -2.24403e-05      128.932 
          60         0.12   0.00388099 -8.67323e-05      128.932 
          60     0.213332   0.00589948 -0.000187371      128.932 
          60     0.333332   0.00698578 -0.000287469      128.932 
          60         0.48   0.00723004 -0.000366643      128.932 
          60     0.653331   0.00693645 -0.000451273      128.932 
          60     0.853332   0.00603989 -0.000587415      128.932 
          60         1.08   0.00471345 -0.000770693      128.932 
          60      1.33333   0.00330085 -0.000952794      128.932 
          60      1.61333   0.00185473    -0.001088      128.931 
          60         1.92  0.000307294  -0.00115623      128.931 
          60      2.25333   -0.0008334  -0.00115679      128.931 
          60      2.61333  -0.00151946  -0.00109808      128.931 
          60            3  -0.00190726  -0.00100261      128.931 
          80            0            0            0      126.321 
          80     0.013333  0.000428493 -1.20542e-06      126.321 
          80     0.053333   0.00176328 -1.60411e-05      126.321 
          80         0.12   0.00371295 -5.92958e-05      126.321 
          80     0.213332   0.00546023 -0.000120315      126.321 
          80     0.333332   0.00641127 -0.000168953      126.321 
          80         0.48    0.0067127 -0.000190711      126.321 
          80     0.653331    0.0065582 -0.000210337      126.321 
          80     0.853332   0.00552609   -0.0002831      126.321 
          80         1.08   0.00362206 -0.000426729      126.321 
          80      1.33333    0.0019959  -0.00058709      126.321 
          80      1.61333   0.00096521 -0.000709391      126.321 
          80         1.92 -6.58826e-05 -0.000787697      126.321 
          80      2.25333 -0.000863389 -0.000821731      126.321 
          80      2.61333  -0.00136627 -0.000811105      126.321 
          80            3  -0.00162548 -0.000767285      126.321 
         100            0           -0           -0      123.717 
         100     0.013333  0.000168075 -5.11368e-07      123.717 
         100     0.053333  0.000703466 -6.78307e-06      123.717 
         100         0.12   0.00149454 -2.51853e-05      123.717 
         100     0.213332   0.00223606 -5.24102e-05      123.717 
         100     0.333332   0.00270248 -7.82459e-05      123.717 
         100         0.48   0.00292155 -9.79642e-05      123.717 
         100     0.653331   0.00290905 -0.000120742      123.717 
         100     0.853332   0.00241873 -0.000168925      123.717 
         100         1.08   0.00149497 -0.000247588      123.717 
         100      1.33333  0.000863073 -0.000323176      123.717 
         100      1.61333  0.000546804 -0.000372997      123.717 
         100         1.92  9.22685e-05  -0.00040637      123.717 
         100      2.25333 -0.000301121 -0.000424037      123.717 
         100      2.61333 -0.000554336 -0.000423102      123.717 
         100            3 -0.000697133 -0.000406193      123.717 
         150            0           -0           -0      117.209 
         150     0.013333 -3.78265e-05 -3.02753e-07      117.209 
         150     0.053333 -4.49658e-05 -4.51395e-06      117.209 
         150         0.12  0.000120555 -2.00373e-05      117.209 
         150     0.213332  0.000450699  -5.1997e-05      117.209 
         150     0.333332  0.000775308 -9.87097e-05      117.209 
         150         0.48  0.000951444  -0.00015462      117.209 
         150     0.653331   0.00095082 -0.000216137      117.209 
         150     0.853332  0.000805882 -0.000281913      117.209 
         150         1.08  0.000601184 -0.000347615      117.209 
         150      1.33333  0.000431816 -0.000405778      117.209 
         150      1.61333  0.000288752 -0.000450967      117.209 
         150         1.92  0.000120685 -0.000479231      117.209 
         150      2.25333 -1.85876e-05 -0.000487889      117.209 
         150      2.61333 -0.000118647 -0.000477102      117.209 
         150            3 -0.000191674 -0.000450294      117.209 
         200            0            0            0      110.694 
         200     0.013333 -1.49773e-05 -2.74744e-07      110.694 
         200     0.053333  3.20484e-05 -4.06256e-06      110.694 
         200         0.12  0.000259595 -1.79246e-05      110.694 
         200     0.213332  0.000656442  -4.6528e-05      110.694 
         200     0.333332   0.00106647 -8.88573e-05      110.694 
         200         0.48   0.00134738 -0.000140205      110.694 
         200     0.653331   0.00145606 -0.000197066      110.694 
         200     0.853332   0.00139499 -0.000258934      110.694 
         200         1.08   0.00119181 -0.000324859      110.694 
         200      1.33333  0.000934732 -0.000389751      110.694 
         200      1.61333  0.000684647 -0.000445832      110.694 
         200         1.92  0.000412461 -0.000487056      110.694 
         200      2.25333  0.000161985 -0.000510124      110.694 
         200      2.61333 -5.03188e-05 -0.000513503      110.694 
         200            3 -0.000217673 -0.000498459      110.694 
         250            0           -0           -0      104.161 
         250     0.013333 -6.46708e-05  2.34404e-07      104.161 
         250     0.053333 -0.000290233  3.46874e-06      104.161 
         250         0.12 -0.000724162  1.51851e-05      104.161 
         250     0.213332  -0.00126546  3.84949e-05      104.161 
         250     0.333332  -0.00170428  7.02005e-05      104.161 
         250         0.48  -0.00191008  0.000103254      104.161 
         250     0.653331   -0.0019091  0.000132603      104.161 
         250     0.853332    -0.001788  0.000157083      104.161 
         250         1.08  -0.00160091  0.000176995      104.161 
         250      1.33333  -0.00135689  0.000193016      104.161 
         250      1.61333  -0.00105593  0.000204979      104.161 
         250         1.92 -0.000708382  0.000211373      104.161 
         250      2.25333  -0.00036577  0.000211137      104.161 
         250      2.61333 -5.58825e-05  0.000203857      104.162 
         250            3  0.000200957  0.000190298      104.162 
         300            0           -0           -0      97.6034 
         300     0.013333  0.000235721  3.36456e-07      97.6034 
         300     0.053333  0.000756028  5.32983e-06      97.6034 
         300         0.12   0.00113949  2.57219e-05      97.6034 
         300     0.213332   0.00112905  7.33034e-05      97.6034 
         300     0.333332  0.000828003  0.000152719      97.6034 
         300         0.48  0.000517929  0.000259998      97.6034 
         300     0.653331  0.000393897  0.000388738      97.6034 
         300     0.853332  0.000482183  0.000533083      97.6034 
         300         1.08  0.000639162  0.000682999      97.6034 
         300      1.33333  0.000661572  0.000823395      97.6034 
         300      1.61333  0.000540622  0.000943094      97.6034 
         300         1.92  0.000400437   0.00103474      97.6034 
         300      2.25333  0.000253664   0.00109128      97.6034 
         300      2.61333  0.000108251   0.00110862      97.6034 
         300            3 -2.13627e-05   0.00108637      97.6034 
         350            0           -0           -0      91.0201 
         350     0.013333  8.24091e-05  1.16934e-07      91.0201 
         350     0.053333  0.000267253  1.86637e-06      91.0201 
         350         0.12  0.000399446  9.06808e-06      91.0201 
         350     0.213332  0.000385868  2.59306e-05      91.0201 
         350     0.333332  0.000265187  5.40149e-05      91.0201 
         350         0.48  0.000141573  9.17746e-05      91.0201 
         350     0.653331  8.92906e-05  0.000137006      91.0201 
         350     0.853332  0.000122701  0.000187878      91.0201 
         350         1.08  0.000188792  0.000240738      91.0201 
         350      1.33333  0.000201741  0.000289643      91.0201 
         350      1.61333  0.000156149   0.00033065      91.0201 
         350         1.92  0.000107954  0.000362258      91.0201 
         350      2.25333  6.13941e-05  0.000382323      91.0201 
         350      2.61333  1.61088e-05  0.000389349      91.0201 
         350            3 -2.33771e-05  0.000382965      91.0201 
         400            0            0            0      84.4208 
         400     0.013333 -8.79968e-05  2.32353e-07      84.4208 
         400     0.053333 -0.000369925  3.32188e-06      84.4208 
         400         0.12 -0.000841695  1.37915e-05      84.4208 
         400     0.213332  -0.00135399  3.26724e-05      84.4208 
         400     0.333332  -0.00169936  5.51432e-05      84.4208 
         400         0.48  -0.00179834  7.49686e-05      84.4208 
         400     0.653331  -0.00171673   9.0324e-05      84.4208 
         400     0.853332  -0.00153176  0.000103937      84.4208 
         400         1.08  -0.00128623  0.000117905      84.4208 
         400      1.33333  -0.00104034  0.000130153      84.4208 
         400      1.61333 -0.000819669  0.000137852      84.4209 
         400         1.92 -0.000580856   0.00014098      84.4209 
         400      2.25333 -0.000331896  0.000139766      84.4209 
         400      2.61333 -9.12228e-05  0.000134067      84.4209 
         400            3  0.000122674  0.000124165      84.4209 
         450            0            0            0      77.8094 
         450     0.013333   0.00026404   1.0729e-07      77.8094 
         450     0.053333  0.000916292  1.93037e-06      77.8094 
         450         0.12   0.00159385  1.08053e-05      77.8094 
         450     0.213332   0.00195442  3.54115e-05      77.8094 
         450     0.333332   0.00190728   8.3245e-05      77.8094 
         450         0.48   0.00162277  0.000156309      77.8094 
         450     0.653331    0.0013405  0.000251823      77.8094 
         450     0.853332   0.00120055  0.000365057      77.8094 
         450         1.08   0.00117428  0.000488545      77.8094 
         450      1.33333   0.00109906   0.00061059      77.8094 
         450      1.61333  0.000894868  0.000721008      77.8094 
         450         1.92  0.000651106  0.000814904      77.8094 
         450      2.25333   0.00040053  0.000886879      77.8094 
         450      2.61333  0.000154609  0.000931745      77.8094 
         450            3 -6.86445e-05  0.000946057      77.8094 
         500            0            0            0      71.1832 
         500     0.013333  -0.00055478  4.71872e-07      71.1832 
         500     0.053333  -0.00211446  6.32505e-06      71.1832 
         500         0.12  -0.00425967  2.33604e-05      71.1832 
         500     0.213332  -0.00621474  4.52779e-05      71.1832 
         500     0.333332  -0.00730424  5.22596e-05      71.1832 
         500         0.48  -0.00745375  2.58041e-05      71.1832 
         500     0.653331  -0.00707558 -3.72314e-05      71.1832 
         500     0.853332  -0.00653744 -0.000125224      71.1832 
         500         1.08   -0.0058974 -0.000221938      71.1832 
         500      1.33333  -0.00510558 -0.000317332      71.1832 
         500      1.61333  -0.00419971 -0.000409306      71.1832 
         500         1.92  -0.00320197 -0.000495448      71.1832 
         500      2.25333  -0.00213603 -0.000570136      71.1833 
         500      2.61333  -0.00105511 -0.000628214      71.1833 
         500            3  -4.0151e-05 -0.000665896      71.1834 
         550            0            0            0      64.5549 
         550     0.013333  0.000658929 -4.54023e-07      64.5549 
         550     0.053333   0.00249063 -5.84827e-06      64.5549 
         550         0.12   0.00494428 -2.00664e-05      64.5549 
         550     0.213332   0.00714249 -3.38712e-05      64.5549 
         550     0.333332   0.00841788 -2.66769e-05      64.5549 
         550         0.48   0.00877017   1.7442e-05      64.5549 
         550     0.653331   0.00865427  9.86224e-05      64.5549 
         550     0.853332   0.00840766  0.000202941      64.5549 
         550         1.08    0.0079556  0.000308393      64.5549 
         550      1.33333   0.00707007  0.000395659      64.5549 
         550      1.61333   0.00583754  0.000461295      64.5549 
         550         1.92    0.0045183   0.00051284      64.5549 
         550      2.25333   0.00314583  0.000550527      64.5548 
         550      2.61333   0.00174617  0.000571593      64.5548 
         550            3  0.000404452  0.000573893      64.5547 
         600            0            0            0      57.9102 
         600     0.013333 -0.000271175 -4.27675e-08      57.9102 
         600     0.053333  -0.00093666 -1.11593e-06      57.9102 
         600         0.12  -0.00162603 -8.09307e-06      57.9102 
         600     0.213332  -0.00196502  -3.0757e-05      57.9102 
         600     0.333332  -0.00187618 -7.78064e-05      57.9102 
         600         0.48  -0.00160222 -0.000149559      57.9102 
         600     0.653331  -0.00141921 -0.000238434      57.9102 
         600     0.853332  -0.00140073 -0.000334309      57.9102 
         600         1.08  -0.00140893 -0.000426511      57.9102 
         600      1.33333  -0.00126074 -0.000505096      57.9102 
         600      1.61333 -0.000958625 -0.000566337      57.9102 
         600         1.92 -0.000662829  -0.00061311      57.9102 
         600      2.25333 -0.000394858 -0.000645055      57.9102 
         600      2.61333 -0.000140734 -0.000659799      57.9102 
         600            3  9.50887e-05 -0.000655119      57.9103 
         650            0           -0           -0      51.2597 
         650     0.013333  0.000551392  4.58667e-07      51.2597 
         650     0.053333   0.00182518  7.58479e-06      51.2597 
         650         0.12   0.00291866  3.89479e-05      51.2597 
         650     0.213332   0.00307369  0.000119064      51.2597 
         650     0.333332   0.00225999  0.000265207      51.2597 
         650         0.48   0.00108891   0.00047615      51.2597 
         650     0.653331  0.000200787  0.000736672      51.2597 
         650     0.853332 -0.000152171   0.00102972      51.2597 
         650         1.08 -9.75554e-05    0.0013398      51.2597 
         650      1.33333  3.21192e-05   0.00164883      51.2597 
         650      1.61333  5.45987e-06   0.00193875      51.2597 
         650         1.92 -9.21904e-05   0.00219789      51.2597 
         650      2.25333 -0.000175492   0.00241395      51.2597 
         650      2.61333 -0.000235606   0.00257296      51.2597 
         650            3 -0.000282977   0.00266239      51.2597 
         700            0           -0           -0      44.5956 
         700     0.013333 -0.000858151  2.20465e-07      44.5956 
         700     0.053333  -0.00315184  2.35075e-06      44.5956 
         700         0.12  -0.00605301  4.13883e-06      44.5956 
         700     0.213332  -0.00844629 -9.98506e-06      44.5956 
         700     0.333332   -0.0095949  -6.4637e-05      44.5956 
         700         0.48  -0.00959027 -0.000176961      44.5956 
         700     0.653331  -0.00906242 -0.000346337      44.5956 
         700     0.853332  -0.00853837 -0.000558158      44.5955 
         700         1.08  -0.00808618 -0.000790858      44.5955 
         700      1.33333   -0.0074374  -0.00102153      44.5956 
         700      1.61333  -0.00642753  -0.00123398      44.5956 
         700         1.92  -0.00521381  -0.00142336      44.5956 
         700      2.25333  -0.00390665  -0.00158484      44.5956 
         700      2.61333   -0.0025469   -0.0017092      44.5957 
         700            3  -0.00118107  -0.00178726      44.5958 
         750            0  4.78132e-20 -7.51826e-26      37.9296 
         750     0.013333   0.00011075 -7.89011e-07      37.9296 
         750     0.053333  0.000645112 -1.16124e-05      37.9296 
         750         0.12    0.0018962 -5.10012e-05      37.9296 
         750     0.213332   0.00373488 -0.000131999      37.9296 
         750     0.333332   0.00557022 -0.000251265      37.9296 
         750         0.48   0.00685181 -0.000393507      37.9296 
         750     0.653331   0.00744645 -0.000545626      37.9296 
         750     0.853332   0.00748776 -0.000705632      37.9296 
         750         1.08   0.00706265 -0.000880143      37.9296 
         750      1.33333   0.00622588  -0.00107252      37.9296 
         750      1.61333    0.0051981   -0.0012729      37.9296 
         750         1.92   0.00420674  -0.00146285      37.9296 
         750      2.25333   0.00320503  -0.00162897      37.9296 
         750      2.61333   0.00215952  -0.00176142      37.9295 
         750            3    0.0011053  -0.00185159      37.9295 
         800            0           -0           -0      31.2417 
         800     0.013333  0.000337686  6.32241e-08      31.2417 
         800     0.053333   0.00121025  1.20483e-06      31.2417 
         800         0.12   0.00225403  7.17127e-06      31.2417 
         800     0.213332   0.00307149  2.49289e-05      31.2417 
         800     0.333332   0.00345481  6.19478e-05      31.2417 
         800         0.48   0.00346433  0.000122355      31.2417 
         800     0.653331   0.00330817  0.000205892      31.2417 
         800     0.853332   0.00317195  0.000309689      31.2418 
         800         1.08   0.00312385   0.00042939      31.2418 
         800      1.33333   0.00308033  0.000557446      31.2418 
         800      1.61333   0.00288366  0.000682619      31.2418 
         800         1.92    0.0024896   0.00079629      31.2418 
         800      2.25333   0.00200282  0.000893996      31.2418 
         800      2.61333   0.00148106  0.000971748      31.2417 
         800            3   0.00093459   0.00102508      31.2417 
         850            0            0            0      24.5325 
         850     0.013333  0.000138652  1.91315e-07      24.5325 
         850     0.053333  0.000439468  3.00861e-06      24.5325 
         850         0.12  0.000649783  1.45225e-05      24.5325 
         850     0.213332  0.000587915  4.18945e-05      24.5325 
         850     0.333332  0.000288943  8.89962e-05      24.5325 
         850         0.48 -5.46625e-05  0.000154193      24.5325 
         850     0.653331 -0.000271049  0.000232758      24.5325 
         850     0.853332 -0.000305035  0.000320544      24.5325 
         850         1.08 -0.000201488  0.000414407      24.5325 
         850      1.33333 -6.37654e-05  0.000510158      24.5325 
         850      1.61333  1.74899e-05  0.000602795      24.5325 
         850         1.92  4.63539e-05  0.000688734      24.5325 
         850      2.25333  5.70791e-05  0.000764275      24.5325 
         850      2.61333  6.36795e-05   0.00082562      24.5325 
         850            3  6.82875e-05  0.000868705      24.5325 
         900            0 -1.45074e-19 -2.30241e-25       17.806 
         900     0.013333 -0.000245778 -1.59688e-07       17.806 
         900     0.053333 -0.000823034 -2.74373e-06       17.806 
         900         0.12  -0.00133534 -1.47618e-05       17.806 
         900     0.213332  -0.00141803 -4.70806e-05       17.806 
         900     0.333332  -0.00102794 -0.000108339       17.806 
         900         0.48 -0.000455372  -0.00019856       17.806 
         900     0.653331 -3.65997e-05 -0.000309849       17.806 
         900     0.853332  9.56321e-05 -0.000432326       17.806 
         900         1.08  3.54293e-05 -0.000557093       17.806 
         900      1.33333 -1.70952e-05 -0.000675725       17.806 
         900      1.61333  4.77043e-05 -0.000782278       17.806 
         900         1.92  0.000141974 -0.000876577       17.806 
         900      2.25333  0.000198714 -0.000957856       17.806 
         900      2.61333   0.00022301   -0.0010222       17.806 
         900            3  0.000238367  -0.00106459      17.8061 
         950            0            0            0        11.07 
         950     0.013333  0.000562776 -3.98243e-07        11.07 
         950     0.053333   0.00215712 -5.38847e-06        11.07 
         950         0.12   0.00439808 -2.03067e-05        11.07 
         950     0.213332   0.00655627 -4.08471e-05        11.07 
         950     0.333332   0.00792136 -5.07725e-05        11.07 
         950         0.48   0.00829774 -3.30256e-05        11.07 
         950     0.653331   0.00803393  1.76539e-05        11.07 
         950     0.853332   0.00757126  9.27127e-05        11.07 
         950         1.08   0.00705356  0.000176064      11.0701 
         950      1.33333   0.00636262  0.000252753      11.0701 
         950      1.61333   0.00546089  0.000317493        11.07 
         950         1.92   0.00451691  0.000375751        11.07 
         950      2.25333    0.0035686  0.000430407        11.07 
         950      2.61333   0.00258898  0.000479321        11.07 
         950            3    0.0015667  0.000518658      11.0699 
        1000            0           -0           -0      4.32058 
        1000     0.013333  0.000481303  5.87505e-07      4.32058 
        1000     0.053333    0.0015324   9.2283e-06      4.32058 
        1000         0.12   0.00228231  4.46912e-05      4.32058 
        1000     0.213332   0.00207049  0.000129722      4.32058 
        1000     0.333332  0.000963532  0.000277927      4.32058 
        1000         0.48  -0.00040083   0.00048612      4.32059 
        1000     0.653331  -0.00140755  0.000740244      4.32059 
        1000     0.853332  -0.00181332   0.00102723      4.32059 
        1000         1.08  -0.00167072   0.00133963      4.32059 
        1000      1.33333  -0.00121575    0.0016682      4.32059 
        1000      1.61333 -0.000786152   0.00199519      4.32059 
        1000         1.92 -0.000600685   0.00230244      4.32059 
        1000      2.25333 -0.000507619   0.00257663       4.3206 
        1000      2.61333 -0.000399001    0.0028073       4.3206 
        1000            3 -0.000268425   0.00298234      4.32061 
