Variables = x, y, u, v, p

Zone, I=416, F=POINT
         -50            0            0            0     -248.508 
         -50     0.013333  -0.00055025 -9.55132e-08     -248.508 
         -50     0.053333 -0.000514353 -3.50595e-07     -248.508 
         -50         0.12 -0.000504424 -9.38443e-07     -248.508 
         -50     0.213332 -0.000497025 -2.16433e-06     -248.508 
         -50     0.333332  -0.00048621 -4.37567e-06     -248.507 
         -50         0.48 -0.000474668   -6.856e-06     -248.507 
         -50     0.653331  -0.00046804 -9.77375e-06     -248.507 
         -50     0.853332 -0.000468658 -1.33917e-05     -248.506 
         -50         1.08 -0.000474999 -1.74374e-05     -248.506 
         -50      1.33333 -0.000482255  -2.1303e-05     -248.505 
         -50      1.61333 -0.000490365 -2.45412e-05     -248.503 
         -50         1.92 -0.000498067 -2.76038e-05     -248.502 
         -50      2.25333 -0.000504807 -2.87732e-05       -248.5 
         -50      2.61333 -0.000505903  -2.7022e-05     -248.497 
         -50            3 -0.000500576 -2.38746e-05     -248.493 
         -25            0           -0           -0     -241.813 
         -25     0.013333  -0.00046327 -2.49557e-08     -241.813 
         -25     0.053333 -0.000419423 -9.64932e-08     -241.813 
         -25         0.12 -0.000400741 -1.72757e-07     -241.813 
         -25     0.213332 -0.000395925 -1.07379e-07     -241.813 
         -25     0.333332 -0.000397899  1.92195e-07     -241.813 
         -25         0.48 -0.000400079  7.05051e-07     -241.812 
         -25     0.653331 -0.000402202  1.29589e-06     -241.812 
         -25     0.853332 -0.000406929  1.63212e-06     -241.812 
         -25         1.08 -0.000413609  1.41844e-06     -241.812 
         -25      1.33333 -0.000417809  9.59358e-07     -241.812 
         -25      1.61333 -0.000421012  7.04842e-08     -241.812 
         -25         1.92 -0.000425532 -5.32817e-07     -241.811 
         -25      2.25333 -0.000434335 -3.03782e-06     -241.811 
         -25      2.61333 -0.000442906 -5.22869e-06      -241.81 
         -25            3 -0.000444038 -3.19507e-06     -241.809 
           0            0            0            0     -235.399 
           0     0.013333  -0.00146078   0.00092872     -235.407 
           0     0.053333 -0.000909924  0.000488798     -235.421 
           0         0.12 -0.000687966  0.000333159     -235.436 
           0     0.213332 -0.000574695  0.000257832     -235.452 
           0     0.333332 -0.000510604  0.000209914     -235.469 
           0         0.48 -0.000466646  0.000173005     -235.486 
           0     0.653331 -0.000441192   0.00014383     -235.503 
           0     0.853332 -0.000429148  0.000119884     -235.519 
           0         1.08 -0.000423818  9.98909e-05     -235.536 
           0      1.33333 -0.000419449  8.32138e-05     -235.552 
           0      1.61333 -0.000415286  6.93244e-05     -235.567 
           0         1.92 -0.000413431  5.86672e-05     -235.582 
           0      2.25333 -0.000408997  5.02703e-05     -235.597 
           0      2.61333 -0.000402666   4.3563e-05     -235.611 
           0            3 -0.000399784  3.65022e-05     -235.625 
          20            0  -0.00039764  9.96628e-06     -231.355 
          20     0.013333 -0.000394513  9.47705e-06     -231.355 
          20     0.053333 -0.000385011  7.91225e-06     -231.355 
          20         0.12 -0.000369034   4.9707e-06     -231.355 
          20     0.213332  -0.00034752  1.12114e-07     -231.355 
          20     0.333332 -0.000324015  -7.3223e-06     -231.354 
          20         0.48 -0.000304903 -1.82354e-05     -231.354 
          20     0.653331 -0.000295842 -3.26445e-05     -231.354 
          20     0.853332 -0.000296407 -4.97245e-05     -231.353 
          20         1.08 -0.000299586 -6.76568e-05     -231.352 
          20      1.33333 -0.000298075 -8.40883e-05     -231.352 
          20      1.61333 -0.000293552 -9.66871e-05     -231.351 
          20         1.92 -0.000288682 -0.000104119      -231.35 
          20      2.25333 -0.000279721  -0.00010558     -231.349 
          20      2.61333 -0.000271374 -0.000103197     -231.347 
          20            3 -0.000268973   -9.519e-05     -231.346 
          40            0 -1.06461e-18  -4.1381e-23     -226.868 
          40     0.013333  -0.00046636  -6.5084e-07     -226.868 
          40     0.053333 -0.000339984 -8.97128e-06     -226.868 
          40         0.12  6.47388e-05 -3.78484e-05     -226.868 
          40     0.213332  0.000604119 -9.33878e-05     -226.868 
          40     0.333332  0.000934738 -0.000171691     -226.868 
          40         0.48   0.00096408 -0.000266106     -226.868 
          40     0.653331  0.000965531 -0.000364751     -226.867 
          40     0.853332   0.00103731 -0.000457124     -226.867 
          40         1.08  0.000851109 -0.000547435     -226.867 
          40      1.33333  0.000460409 -0.000626239     -226.866 
          40      1.61333  5.67552e-05 -0.000673197     -226.866 
          40         1.92 -0.000293203 -0.000680588     -226.865 
          40      2.25333  -0.00055782 -0.000651078     -226.864 
          40      2.61333 -0.000720863 -0.000593944     -226.863 
          40            3 -0.000788076 -0.000521169     -226.862 
          60            0            0            0      -222.21 
          60     0.013333 -0.000280764 -8.61685e-07      -222.21 
          60     0.053333  0.000309388 -1.19844e-05      -222.21 
          60         0.12   0.00130877 -4.77092e-05      -222.21 
          60     0.213332   0.00232384 -0.000107152      -222.21 
          60     0.333332   0.00291743   -0.0001726      -222.21 
          60         0.48   0.00306372  -0.00023298      -222.21 
          60     0.653331   0.00287393 -0.000300547      -222.21 
          60     0.853332   0.00235419 -0.000394972      -222.21 
          60         1.08   0.00168712 -0.000507572      -222.21 
          60      1.33333   0.00106678 -0.000610472      -222.21 
          60      1.61333  0.000446741 -0.000683553      -222.21 
          60         1.92 -0.000241117 -0.000716852      -222.21 
          60      2.25333 -0.000752749 -0.000710089      -222.21 
          60      2.61333  -0.00106069  -0.00066893      -222.21 
          60            3    -0.001232 -0.000605397      -222.21 
          80            0            0            0     -217.626 
          80     0.013333 -0.000265938 -5.62378e-07     -217.626 
          80     0.053333  0.000284871 -7.55443e-06     -217.626 
          80         0.12   0.00110266  -2.8538e-05     -217.626 
          80     0.213332   0.00188249 -6.02437e-05     -217.626 
          80     0.333332   0.00236588 -9.05143e-05     -217.626 
          80         0.48   0.00258898 -0.000113327     -217.626 
          80     0.653331   0.00259047 -0.000140305     -217.626 
          80     0.853332   0.00211144 -0.000198395     -217.626 
          80         1.08   0.00116867 -0.000293795     -217.626 
          80      1.33333  0.000418981  -0.00039335     -217.626 
          80      1.61333 -3.18261e-06 -0.000469107     -217.626 
          80         1.92 -0.000430881 -0.000517894     -217.626 
          80      2.25333 -0.000758195 -0.000538687     -217.626 
          80      2.61333  -0.00096243 -0.000531958     -217.627 
          80            3  -0.00107157 -0.000504786     -217.627 
         100            0           -0           -0      -213.06 
         100     0.013333 -0.000433721  1.10639e-08      -213.06 
         100     0.053333 -0.000437386  3.32972e-07      -213.06 
         100         0.12 -0.000504779  2.25054e-06      -213.06 
         100     0.213332 -0.000597001  6.99922e-06      -213.06 
         100     0.333332 -0.000636812  1.30568e-05      -213.06 
         100         0.48  -0.00058162  1.65955e-05      -213.06 
         100     0.653331 -0.000482793  1.34973e-05      -213.06 
         100     0.853332 -0.000475588 -2.33753e-06      -213.06 
         100         1.08 -0.000622606 -3.46525e-05      -213.06 
         100      1.33333 -0.000688421 -7.15201e-05      -213.06 
         100      1.61333 -0.000585622 -9.94952e-05      -213.06 
         100         1.92 -0.000507855  -0.00012142      -213.06 
         100      2.25333 -0.000449257 -0.000137693      -213.06 
         100      2.61333   -0.0003984 -0.000148008      -213.06 
         100            3   -0.0003657 -0.000152813      -213.06 
         150            0           -0           -0      -201.66 
         150     0.013333 -0.000735908    1.637e-07      -201.66 
         150     0.053333  -0.00152146  1.73498e-06      -201.66 
         150         0.12  -0.00248178  3.27293e-06      -201.66 
         150     0.213332  -0.00317248 -4.55882e-06      -201.66 
         150     0.333332  -0.00341569 -3.36743e-05      -201.66 
         150         0.48  -0.00337419 -8.84365e-05      -201.66 
         150     0.653331  -0.00326208 -0.000162848      -201.66 
         150     0.853332  -0.00308287 -0.000243485      -201.66 
         150         1.08  -0.00271591 -0.000316816      -201.66 
         150      1.33333  -0.00218572 -0.000376227      -201.66 
         150      1.61333  -0.00160164 -0.000422771      -201.66 
         150         1.92 -0.000996132 -0.000452476      -201.66 
         150      2.25333  -0.00046114  -0.00046211      -201.66 
         150      2.61333 -3.68501e-05 -0.000453563      -201.66 
         150            3  0.000265609 -0.000429117      -201.66 
         200            0            0            0     -190.261 
         200     0.013333 -0.000344553 -7.48227e-08     -190.261 
         200     0.053333 -9.99536e-05 -8.78836e-07     -190.261 
         200         0.12   0.00015815 -2.36956e-06     -190.261 
         200     0.213332  0.000310339 -1.54083e-06     -190.261 
         200     0.333332  0.000307113  5.86102e-06     -190.261 
         200         0.48   0.00021648  2.11773e-05     -190.261 
         200     0.653331  0.000119874  4.16232e-05     -190.261 
         200     0.853332  2.37179e-05  6.23253e-05     -190.261 
         200         1.08 -9.34895e-05  8.02962e-05     -190.261 
         200      1.33333 -0.000198628  9.65921e-05     -190.261 
         200      1.61333 -0.000278013  0.000112489     -190.261 
         200         1.92 -0.000355155  0.000125753     -190.261 
         200      2.25333 -0.000425089  0.000134667     -190.261 
         200      2.61333 -0.000479463  0.000138886     -190.261 
         200            3 -0.000513187    0.0001383     -190.261 
         250            0           -0           -0      -178.86 
         250     0.013333 -0.000321946  8.44326e-08      -178.86 
         250     0.053333 -5.55808e-05  1.46652e-06      -178.86 
         250         0.12  0.000151027  7.80869e-06      -178.86 
         250     0.213332  0.000191969  2.40237e-05      -178.86 
         250     0.333332  0.000103765  5.25685e-05      -178.86 
         250         0.48  7.77604e-06  9.17817e-05      -178.86 
         250     0.653331 -1.93021e-05  0.000138033      -178.86 
         250     0.853332  7.41019e-06  0.000187046      -178.86 
         250         1.08  7.85837e-06  0.000233368      -178.86 
         250      1.33333 -6.07771e-05   0.00027243      -178.86 
         250      1.61333 -0.000155836  0.000303106      -178.86 
         250         1.92 -0.000247781  0.000323819      -178.86 
         250      2.25333 -0.000333836  0.000332376      -178.86 
         250      2.61333 -0.000408159  0.000328653      -178.86 
         250            3 -0.000464878  0.000313581      -178.86 
         300            0           -0           -0     -167.451 
         300     0.013333 -0.000502722  2.54785e-07     -167.451 
         300     0.053333 -0.000729525  3.59133e-06     -167.451 
         300         0.12  -0.00114922  1.45918e-05     -167.451 
         300     0.213332    -0.001593  3.36578e-05     -167.451 
         300     0.333332  -0.00186335  5.53374e-05     -167.451 
         300         0.48  -0.00191047   7.3935e-05     -167.451 
         300     0.653331  -0.00181099   8.9117e-05     -167.451 
         300     0.853332  -0.00161877    0.0001049     -167.451 
         300         1.08  -0.00136304  0.000123142     -167.451 
         300      1.33333    -0.001121  0.000140086     -167.451 
         300      1.61333 -0.000918514  0.000151515     -167.451 
         300         1.92 -0.000702597  0.000157258     -167.451 
         300      2.25333  -0.00049247  0.000157238     -167.451 
         300      2.61333 -0.000307022  0.000151331     -167.451 
         300            3 -0.000158267  0.000140196     -167.451 
         350            0           -0           -0     -156.035 
         350     0.013333 -0.000530492  1.65051e-07     -156.035 
         350     0.053333 -0.000795232  2.14545e-06     -156.035 
         350         0.12   -0.0011735  7.51096e-06     -156.035 
         350     0.213332  -0.00146176  1.34634e-05     -156.035 
         350     0.333332  -0.00153241   1.4048e-05     -156.035 
         350         0.48  -0.00143889  6.30682e-06     -156.035 
         350     0.653331  -0.00130297 -6.60004e-06     -156.035 
         350     0.853332  -0.00115099 -1.77705e-05     -156.035 
         350         1.08 -0.000939264 -2.18057e-05     -156.035 
         350      1.33333 -0.000709964 -1.99991e-05     -156.035 
         350      1.61333  -0.00054655  -1.8102e-05     -156.035 
         350         1.92 -0.000413279 -1.74924e-05     -156.035 
         350      2.25333 -0.000295102 -1.70732e-05     -156.035 
         350      2.61333  -0.00019722 -1.67383e-05     -156.035 
         350            3 -0.000127016 -1.64077e-05     -156.035 
         400            0            0            0     -144.614 
         400     0.013333 -0.000425979  3.94971e-07     -144.614 
         400     0.053333 -0.000503271  5.81002e-06     -144.614 
         400         0.12 -0.000880488  2.54389e-05     -144.614 
         400     0.213332  -0.00150861  6.54696e-05     -144.614 
         400     0.333332  -0.00213995  0.000123959     -144.614 
         400         0.48  -0.00256292  0.000194019     -144.614 
         400     0.653331  -0.00273209  0.000271024     -144.614 
         400     0.853332  -0.00266781   0.00035558     -144.614 
         400         1.08  -0.00238872  0.000449251     -144.614 
         400      1.33333   -0.0020006   0.00054717     -144.614 
         400      1.61333   -0.0016419  0.000638398     -144.614 
         400         1.92  -0.00128725  0.000714593     -144.614 
         400      2.25333  -0.00092776  0.000770748     -144.614 
         400      2.61333  -0.00057782  0.000802466     -144.614 
         400            3 -0.000263919  0.000807281     -144.614 
         450            0            0            0     -133.189 
         450     0.013333 -0.000450839 -2.27124e-07     -133.189 
         450     0.053333 -0.000414458 -3.43504e-06     -133.189 
         450         0.12 -0.000228993 -1.56607e-05     -133.189 
         450     0.213332     0.000147 -4.21986e-05     -133.189 
         450     0.333332  0.000578169  -8.3428e-05     -133.189 
         450         0.48  0.000894128 -0.000135027     -133.189 
         450     0.653331   0.00102449 -0.000192213     -133.189 
         450     0.853332  0.000994349 -0.000252523     -133.189 
         450         1.08  0.000859523 -0.000314593     -133.189 
         450      1.33333  0.000676739 -0.000376164     -133.189 
         450      1.61333  0.000481068 -0.000433885     -133.189 
         450         1.92  0.000271379 -0.000483815     -133.189 
         450      2.25333  5.35134e-05 -0.000521759     -133.189 
         450      2.61333 -0.000163622 -0.000544694     -133.189 
         450            3  -0.00036648 -0.000550812     -133.189 
         500            0            0            0     -121.763 
         500     0.013333 -0.000533403  1.10838e-07     -121.763 
         500     0.053333 -0.000799894  1.41455e-06     -121.763 
         500         0.12  -0.00118184  4.77558e-06     -121.763 
         500     0.213332  -0.00150059   7.9124e-06     -121.763 
         500     0.333332  -0.00164321  6.38878e-06     -121.763 
         500         0.48  -0.00164392 -2.13583e-06     -121.763 
         500     0.653331  -0.00160555 -1.57663e-05     -121.763 
         500     0.853332  -0.00156152 -2.95511e-05     -121.763 
         500         1.08  -0.00144966 -3.76318e-05     -121.763 
         500      1.33333  -0.00123789 -3.74603e-05     -121.763 
         500      1.61333  -0.00101048 -3.26171e-05     -121.763 
         500         1.92 -0.000815275  -2.7089e-05     -121.763 
         500      2.25333 -0.000629072 -2.10724e-05     -121.763 
         500      2.61333 -0.000446782 -1.45524e-05     -121.763 
         500            3 -0.000283021 -7.79694e-06     -121.763 
         550            0            0            0     -110.334 
         550     0.013333 -0.000258561  2.15676e-07     -110.334 
         550     0.053333   0.00013248  3.46917e-06     -110.334 
         550         0.12  0.000370927  1.72122e-05     -110.334 
         550     0.213332  0.000239102  5.08539e-05     -110.334 
         550     0.333332 -0.000203107  0.000109858     -110.334 
         550         0.48 -0.000696228  0.000192123     -110.334 
         550     0.653331  -0.00102697  0.000290799     -110.334 
         550     0.853332  -0.00114044  0.000399446     -110.334 
         550         1.08  -0.00109225  0.000513332     -110.334 
         550      1.33333 -0.000986717  0.000626922     -110.334 
         550      1.61333 -0.000907752  0.000733196     -110.334 
         550         1.92 -0.000837895  0.000826263     -110.334 
         550      2.25333 -0.000755024  0.000900649     -110.334 
         550      2.61333 -0.000660178  0.000951044     -110.334 
         550            3 -0.000562295  0.000973312     -110.334 
         600            0            0            0     -98.9034 
         600     0.013333 -0.000824013 -3.83102e-07     -98.9034 
         600     0.053333  -0.00169564 -6.27374e-06     -98.9034 
         600         0.12  -0.00243183 -3.17642e-05     -98.9034 
         600     0.213332  -0.00249591 -9.54731e-05     -98.9034 
         600     0.333332  -0.00192272 -0.000208867     -98.9034 
         600         0.48  -0.00118787 -0.000368699     -98.9034 
         600     0.653331  -0.00072784 -0.000562417     -98.9034 
         600     0.853332 -0.000662037 -0.000777261     -98.9034 
         600         1.08 -0.000824874  -0.00100073     -98.9034 
         600      1.33333 -0.000932917  -0.00121805     -98.9034 
         600      1.61333 -0.000863096  -0.00141694     -98.9034 
         600         1.92 -0.000736269  -0.00159075     -98.9034 
         600      2.25333 -0.000610959  -0.00173054     -98.9034 
         600      2.61333 -0.000491603  -0.00182664     -98.9034 
         600            3 -0.000377422  -0.00187105     -98.9034 
         650            0           -0           -0     -87.4704 
         650     0.013333 -0.000223083  7.68767e-07     -87.4704 
         650     0.053333  9.43684e-05  1.17685e-05     -87.4704 
         650         0.12 -0.000160598  5.45334e-05     -87.4704 
         650     0.213332  -0.00121176  0.000149432     -87.4704 
         650     0.333332   -0.0026052  0.000299901     -87.4704 
         650         0.48  -0.00366371  0.000491357     -87.4704 
         650     0.653331  -0.00405915  0.000706475     -87.4704 
         650     0.853332  -0.00384245  0.000937163     -87.4704 
         650         1.08  -0.00322732   0.00117945     -87.4704 
         650      1.33333  -0.00255592   0.00142029     -87.4704 
         650      1.61333  -0.00211252   0.00163986     -87.4704 
         650         1.92  -0.00178198   0.00182692     -87.4704 
         650      2.25333  -0.00141949   0.00197447     -87.4704 
         650      2.61333  -0.00101763   0.00207369     -87.4704 
         650            3 -0.000625203   0.00211579     -87.4704 
         700            0           -0           -0     -76.0329 
         700     0.013333 -0.000812733 -7.94342e-07     -76.0329 
         700     0.053333   -0.0015369 -1.22565e-05     -76.0329 
         700         0.12  -0.00181394 -5.76075e-05     -76.0329 
         700     0.213332  -0.00113395 -0.000161252     -76.0329 
         700     0.333332  0.000228619 -0.000332735     -76.0329 
         700         0.48   0.00157645 -0.000562659     -76.0329 
         700     0.653331   0.00240809 -0.000834778     -76.0329 
         700     0.853332   0.00259587  -0.00113892     -76.0329 
         700         1.08   0.00222723  -0.00146996     -76.0329 
         700      1.33333   0.00159208  -0.00181494     -76.0329 
         700      1.61333   0.00109006  -0.00214874     -76.0329 
         700         1.92  0.000788246  -0.00244897     -76.0329 
         700      2.25333  0.000510354  -0.00270181      -76.033 
         700      2.61333   0.00020163  -0.00289276      -76.033 
         700            3 -0.000102874   -0.0030079      -76.033 
         750            0 -3.37402e-19  2.74722e-26     -64.5937 
         750     0.013333  2.06525e-05 -3.29066e-08     -64.5937 
         750     0.053333   0.00123291 -5.37639e-08     -64.5937 
         750         0.12   0.00270523  2.71156e-06     -64.5937 
         750     0.213332    0.0039026  1.67813e-05     -64.5937 
         750     0.333332   0.00450615  5.33622e-05     -64.5937 
         750         0.48   0.00458551  0.000119238     -64.5937 
         750     0.653331   0.00443397  0.000213497     -64.5937 
         750     0.853332   0.00429002  0.000329854     -64.5937 
         750         1.08   0.00418662  0.000459141     -64.5937 
         750      1.33333   0.00397809  0.000589856     -64.5937 
         750      1.61333   0.00352605  0.000710742     -64.5937 
         750         1.92   0.00288324  0.000816344     -64.5937 
         750      2.25333   0.00216026   0.00090436     -64.5938 
         750      2.61333   0.00140256  0.000970832     -64.5938 
         750            3  0.000625954   0.00101128     -64.5938 
         800            0           -0           -0     -53.1528 
         800     0.013333 -0.000588765  8.76672e-08     -53.1528 
         800     0.053333 -0.000982418  9.84174e-07     -53.1528 
         800         0.12  -0.00146956  2.20406e-06     -53.1528 
         800     0.213332  -0.00176585 -1.29608e-06     -53.1528 
         800     0.333332  -0.00172115 -1.72087e-05     -53.1528 
         800         0.48  -0.00144541 -4.90941e-05     -53.1528 
         800     0.653331  -0.00116813 -9.25821e-05     -53.1528 
         800     0.853332 -0.000992078 -0.000138159     -53.1528 
         800         1.08 -0.000836057 -0.000176361     -53.1528 
         800      1.33333 -0.000607003 -0.000202699     -53.1528 
         800      1.61333  -0.00036614 -0.000220016     -53.1528 
         800         1.92 -0.000218586 -0.000234092     -53.1528 
         800      2.25333 -0.000131855 -0.000245257     -53.1528 
         800      2.61333 -6.85407e-05 -0.000252293     -53.1528 
         800            3 -2.21163e-05 -0.000253891     -53.1528 
         850            0            0            0     -41.7006 
         850     0.013333  0.000480089 -6.38307e-07     -41.7006 
         850     0.053333    0.0030703 -8.57696e-06     -41.7006 
         850         0.12   0.00661884 -3.17326e-05     -41.7006 
         850     0.213332   0.00990977 -6.11524e-05     -41.7006 
         850     0.333332    0.0118014 -6.77284e-05     -41.7006 
         850         0.48     0.012057 -2.23904e-05     -41.7006 
         850     0.653331    0.0113242  8.15924e-05     -41.7006 
         850     0.853332    0.0103273   0.00022677     -41.7006 
         850         1.08   0.00927599  0.000385189     -41.7006 
         850      1.33333   0.00804992  0.000536745     -41.7006 
         850      1.61333   0.00669165  0.000678785     -41.7006 
         850         1.92   0.00536842  0.000817077     -41.7006 
         850      2.25333   0.00401634  0.000948449     -41.7007 
         850      2.61333   0.00259482   0.00106447     -41.7008 
         850            3   0.00114547   0.00115751     -41.7009 
         900            0 -7.79704e-19  7.29056e-26     -30.2537 
         900     0.013333 -0.000185144   1.8812e-06     -30.2537 
         900     0.053333 -0.000141519  2.84783e-05     -30.2537 
         900         0.12  -0.00170392  0.000130336     -30.2537 
         900     0.213332  -0.00526214   0.00035387     -30.2537 
         900     0.333332  -0.00963115  0.000706826     -30.2537 
         900         0.48   -0.0130966   0.00115568     -30.2537 
         900     0.653331   -0.0147867   0.00165834     -30.2537 
         900     0.853332   -0.0148111   0.00219492     -30.2537 
         900         1.08   -0.0135855   0.00276606     -30.2537 
         900      1.33333   -0.0116298   0.00336431     -30.2537 
         900      1.61333  -0.00967321   0.00395604     -30.2537 
         900         1.92  -0.00809265   0.00450146     -30.2537 
         900      2.25333  -0.00655366   0.00497533     -30.2536 
         900      2.61333  -0.00488185    0.0053569     -30.2535 
         900            3  -0.00314457   0.00562361     -30.2535 
         950            0            0            0     -18.7983 
         950     0.013333  -0.00226915  7.33821e-08     -18.7983 
         950     0.053333  -0.00706616 -7.52718e-07     -18.7983 
         950         0.12   -0.0129336 -1.60339e-05     -18.7983 
         950     0.213332   -0.0174645 -8.45178e-05     -18.7983 
         950     0.333332   -0.0192438 -0.000256722     -18.7983 
         950         0.48   -0.0186543 -0.000562245     -18.7983 
         950     0.653331   -0.0171647 -0.000993529     -18.7983 
         950     0.853332   -0.0159837  -0.00151795     -18.7983 
         950         1.08   -0.0153427  -0.00209359     -18.7983 
         950      1.33333   -0.0146172   -0.0026732     -18.7983 
         950      1.61333   -0.0131479  -0.00321445     -18.7983 
         950         1.92   -0.0110651  -0.00370121     -18.7982 
         950      2.25333  -0.00882347  -0.00412983     -18.7982 
         950      2.61333  -0.00654878  -0.00448575     -18.7981 
         950            3  -0.00418356   -0.0047469     -18.7979 
        1000            0           -0           -0     -7.33086 
        1000     0.013333 -0.000821814 -1.69149e-06     -7.33086 
        1000     0.053333  -0.00123503 -2.57725e-05     -7.33086 
        1000         0.12 -0.000269003 -0.000119143     -7.33086 
        1000     0.213332   0.00271564 -0.000328114     -7.33086 
        1000     0.333332   0.00678539 -0.000666985     -7.33086 
        1000         0.48    0.0103045  -0.00111131     -7.33086 
        1000     0.653331     0.012281  -0.00162283     -7.33086 
        1000     0.853332    0.0126874  -0.00217797     -7.33086 
        1000         1.08    0.0118806    -0.002773     -7.33085 
        1000      1.33333     0.010286  -0.00340317     -7.33085 
        1000      1.61333    0.0084714   -0.0040428     -7.33086 
        1000         1.92   0.00696881   -0.0046538     -7.33088 
        1000      2.25333   0.00561267  -0.00520244     -7.33091 
        1000      2.61333   0.00420647  -0.00566471     -7.33096 
        1000            3   0.00270318  -0.00601658     -7.33104 
