Variables = x, y, u, v, p

Zone, I=2080, F=POINT
         -50            0            0            0     -28.3185 
         -50      0.00048  1.61298e-05 -5.26738e-10     -28.3185 
         -50     0.001922  5.69553e-05 -1.43649e-09     -28.3185 
         -50     0.004326  0.000103654 -1.00762e-09     -28.3185 
         -50      0.00769  0.000136398  2.77998e-09     -28.3185 
         -50     0.012017  0.000145294  1.14395e-08     -28.3185 
         -50     0.017304  0.000135536  2.55308e-08     -28.3185 
         -50     0.023553  0.000123102  4.49057e-08     -28.3185 
         -50     0.030763  0.000122261  6.94811e-08     -28.3185 
         -50     0.038936  0.000132989  1.00064e-07     -28.3185 
         -50     0.048069   0.00014049  1.38363e-07     -28.3185 
         -50     0.058163  0.000134347  1.85939e-07     -28.3185 
         -50     0.069219  0.000132363   2.4339e-07     -28.3185 
         -50     0.081236  0.000141499  3.15258e-07     -28.3185 
         -50     0.094215  0.000137009  4.02613e-07     -28.3185 
         -50     0.108155  0.000137253  5.05291e-07     -28.3185 
         -50     0.123056  0.000136155  6.29133e-07     -28.3185 
         -50     0.138918  0.000134813  7.76492e-07     -28.3185 
         -50     0.155744  0.000133433  9.48825e-07     -28.3185 
         -50     0.173529  0.000131671  1.14858e-06     -28.3185 
         -50     0.192276   0.00012921   1.3812e-06     -28.3185 
         -50     0.211984  0.000126259  1.65475e-06     -28.3185 
         -50     0.232655  0.000123339  1.97423e-06     -28.3185 
         -50     0.254285  0.000119747  2.33094e-06     -28.3185 
         -50     0.276877  0.000116114  2.76633e-06     -28.3185 
         -50     0.300431  0.000112237  3.25509e-06     -28.3185 
         -50     0.324946  0.000108238  3.75883e-06     -28.3185 
         -50     0.350424  0.000104216  4.24827e-06     -28.3184 
         -50     0.376861   0.00010025  4.70463e-06     -28.3184 
         -50      0.40426  9.63961e-05  5.12078e-06     -28.3184 
         -50     0.432621  9.26984e-05  5.50176e-06     -28.3184 
         -50     0.461945  8.91933e-05  5.86578e-06     -28.3184 
         -50     0.492228  8.59173e-05  6.24616e-06     -28.3184 
         -50     0.523472  8.29099e-05   6.6957e-06     -28.3184 
         -50     0.555678  8.02098e-05  7.29489e-06     -28.3184 
         -50     0.588845  7.78374e-05  8.16649e-06     -28.3183 
         -50     0.622976  7.58095e-05  9.19833e-06     -28.3183 
         -50     0.658066  7.42078e-05  9.90016e-06     -28.3183 
         -50     0.694117  7.29908e-05  1.05446e-05     -28.3183 
         -50      0.73113  7.21441e-05  1.11686e-05     -28.3182 
         -50     0.769107  7.16463e-05  1.17981e-05     -28.3182 
         -50     0.808042    7.147e-05  1.24477e-05     -28.3182 
         -50     0.847939  7.15824e-05  1.31223e-05     -28.3182 
         -50     0.888797  7.19469e-05   1.3818e-05     -28.3181 
         -50      0.93062  7.25243e-05  1.45246e-05     -28.3181 
         -50       0.9734  7.32744e-05   1.5228e-05     -28.3181 
         -50      1.01714  7.41581e-05  1.59138e-05      -28.318 
         -50      1.06185  7.51389e-05  1.65694e-05      -28.318 
         -50      1.10751  7.61855e-05  1.71877e-05     -28.3179 
         -50      1.15414  7.72729e-05  1.77687e-05     -28.3179 
         -50      1.20173  7.83842e-05  1.83202e-05     -28.3178 
         -50      1.25028  7.95114e-05  1.88575e-05     -28.3178 
         -50      1.29979  8.06561e-05  1.93985e-05     -28.3177 
         -50      1.35026  8.18282e-05   1.9957e-05     -28.3177 
         -50       1.4017  8.30438e-05  2.05294e-05     -28.3176 
         -50      1.45409  8.43213e-05  2.10765e-05     -28.3175 
         -50      1.50745  8.56749e-05  2.14977e-05     -28.3174 
         -50      1.56176  8.72658e-05  2.18579e-05     -28.3174 
         -50      1.61705  8.92221e-05  2.21584e-05     -28.3173 
         -50      1.67329  9.14515e-05  2.24128e-05     -28.3172 
         -50      1.73049  9.38653e-05  2.26309e-05     -28.3171 
         -50      1.78865  9.63788e-05  2.28183e-05      -28.317 
         -50      1.84778  9.89129e-05  2.29774e-05     -28.3169 
         -50      1.90786  0.000101394  2.31067e-05     -28.3168 
         -50      1.96891  0.000103759  2.32023e-05     -28.3167 
         -50      2.03092  0.000105949  2.32576e-05     -28.3166 
         -50      2.09389  0.000107919  2.32646e-05     -28.3165 
         -50      2.15782  0.000109633  2.32139e-05     -28.3164 
         -50      2.22272  0.000111063  2.30965e-05     -28.3162 
         -50      2.28857  0.000112198  2.29035e-05     -28.3161 
         -50      2.35539  0.000113034  2.26278e-05      -28.316 
         -50      2.42317   0.00011358  2.22649e-05     -28.3158 
         -50      2.49191  0.000113857  2.18132e-05     -28.3156 
         -50      2.56161  0.000113897  2.12752e-05     -28.3155 
         -50      2.63226   0.00011374   2.0658e-05     -28.3153 
         -50      2.70389  0.000113436  1.99737e-05     -28.3151 
         -50      2.77648  0.000113039  1.92393e-05      -28.315 
         -50      2.85002  0.000112609  1.84768e-05     -28.3148 
         -50      2.92453  0.000112208  1.77123e-05     -28.3146 
         -50            3  0.000111891  1.69748e-05     -28.3144 
         -25            0  1.17767e-19 -2.27189e-24      -27.192 
         -25      0.00048  1.17196e-05 -2.07883e-10      -27.192 
         -25     0.001922  4.13439e-05 -5.14164e-10      -27.192 
         -25     0.004326  7.51026e-05 -8.02634e-11      -27.192 
         -25      0.00769  9.84944e-05  2.15346e-09      -27.192 
         -25     0.012017  0.000104297  7.13476e-09      -27.192 
         -25     0.017304  9.63348e-05  1.54789e-08      -27.192 
         -25     0.023553  8.63365e-05  2.75014e-08      -27.192 
         -25     0.030763  8.47814e-05  4.34397e-08      -27.192 
         -25     0.038936  9.16963e-05  6.37212e-08      -27.192 
         -25     0.048069  9.62969e-05  8.89507e-08      -27.192 
         -25     0.058163  9.10094e-05  1.19543e-07      -27.192 
         -25     0.069219  8.89152e-05  1.55386e-07      -27.192 
         -25     0.081236  9.51594e-05  1.97395e-07      -27.192 
         -25     0.094215  9.16701e-05  2.45357e-07      -27.192 
         -25     0.108155  9.19252e-05  2.98879e-07      -27.192 
         -25     0.123056  9.15029e-05   3.5805e-07      -27.192 
         -25     0.138918  9.12247e-05  4.22655e-07      -27.192 
         -25     0.155744   9.1245e-05  4.92696e-07      -27.192 
         -25     0.173529  9.13046e-05  5.68204e-07      -27.192 
         -25     0.192276  9.11528e-05  6.49126e-07      -27.192 
         -25     0.211984  9.09115e-05  7.35265e-07      -27.192 
         -25     0.232655  9.09253e-05  8.26771e-07      -27.192 
         -25     0.254285   9.0632e-05  9.25242e-07      -27.192 
         -25     0.276877  9.04493e-05  1.02928e-06      -27.192 
         -25     0.300431  9.01787e-05   1.1381e-06      -27.192 
         -25     0.324946  8.98509e-05  1.25284e-06      -27.192 
         -25     0.350424  8.94885e-05  1.37589e-06      -27.192 
         -25     0.376861  8.91073e-05  1.51046e-06      -27.192 
         -25      0.40426  8.87187e-05  1.66003e-06      -27.192 
         -25     0.432621  8.83336e-05  1.82757e-06      -27.192 
         -25     0.461945  8.79662e-05  2.01479e-06      -27.192 
         -25     0.492228  8.76371e-05  2.22132e-06      -27.192 
         -25     0.523472  8.73726e-05  2.44446e-06      -27.192 
         -25     0.555678  8.71999e-05  2.67925e-06      -27.192 
         -25     0.588845  8.71323e-05  2.91973e-06      -27.192 
         -25     0.622976  8.71672e-05  3.14979e-06      -27.192 
         -25     0.658066  8.73476e-05   3.3725e-06      -27.192 
         -25     0.694117   8.7657e-05  3.61618e-06     -27.1919 
         -25      0.73113  8.80782e-05  3.88627e-06     -27.1919 
         -25     0.769107   8.8589e-05  4.18446e-06     -27.1919 
         -25     0.808042  8.91628e-05  4.50897e-06     -27.1919 
         -25     0.847939  8.97706e-05  4.85518e-06     -27.1919 
         -25     0.888797  9.03822e-05  5.21634e-06     -27.1919 
         -25      0.93062  9.09686e-05  5.58453e-06     -27.1919 
         -25       0.9734  9.15035e-05  5.95161e-06     -27.1919 
         -25      1.01714  9.19662e-05  6.31054e-06     -27.1919 
         -25      1.06185  9.23431e-05  6.65621e-06     -27.1918 
         -25      1.10751  9.26298e-05   6.9864e-06     -27.1918 
         -25      1.15414  9.28317e-05  7.30221e-06     -27.1918 
         -25      1.20173  9.29644e-05   7.6078e-06     -27.1918 
         -25      1.25028  9.30527e-05  7.90944e-06     -27.1918 
         -25      1.29979  9.31271e-05  8.21319e-06     -27.1917 
         -25      1.35026   9.3219e-05  8.52103e-06     -27.1917 
         -25       1.4017  9.33514e-05   8.8247e-06     -27.1917 
         -25      1.45409  9.35274e-05  9.09723e-06     -27.1917 
         -25      1.50745  9.37053e-05  9.28347e-06     -27.1916 
         -25      1.56176  9.36361e-05  9.54106e-06     -27.1916 
         -25      1.61705  9.37767e-05  9.81145e-06     -27.1916 
         -25      1.67329  9.40373e-05  1.00749e-05     -27.1915 
         -25      1.73049  9.43482e-05  1.03179e-05     -27.1915 
         -25      1.78865  9.46596e-05  1.05328e-05     -27.1915 
         -25      1.84778  9.49413e-05   1.0718e-05     -27.1914 
         -25      1.90786  9.51809e-05  1.08769e-05     -27.1914 
         -25      1.96891  9.53824e-05  1.10177e-05     -27.1914 
         -25      2.03092   9.5564e-05  1.11529e-05     -27.1913 
         -25      2.09389   9.5755e-05  1.12977e-05     -27.1913 
         -25      2.15782  9.59931e-05  1.14696e-05     -27.1912 
         -25      2.22272  9.63202e-05   1.1687e-05     -27.1912 
         -25      2.28857  9.67791e-05  1.19679e-05     -27.1911 
         -25      2.35539  9.74089e-05  1.23289e-05     -27.1911 
         -25      2.42317  9.82415e-05  1.27836e-05      -27.191 
         -25      2.49191  9.92969e-05  1.33415e-05      -27.191 
         -25      2.56161   0.00010058  1.40065e-05     -27.1909 
         -25      2.63226  0.000102077  1.47765e-05     -27.1908 
         -25      2.70389  0.000103754   1.5642e-05     -27.1908 
         -25      2.77648  0.000105554  1.65858e-05     -27.1907 
         -25      2.85002  0.000107398  1.75829e-05     -27.1906 
         -25      2.92453   0.00010919  1.86015e-05     -27.1906 
         -25            3  0.000110813  1.96034e-05     -27.1905 
           0            0  1.88845e-15 -1.13373e-15      -26.256 
           0      0.00048   6.0503e-05 -3.62315e-05      -26.256 
           0     0.001922  0.000209005 -0.000124135     -26.2561 
           0     0.004326  0.000364568  -0.00021304     -26.2562 
           0      0.00769  0.000445391 -0.000252673     -26.2564 
           0     0.012017  0.000417827 -0.000224421     -26.2566 
           0     0.017304  0.000317231 -0.000154058      -26.257 
           0     0.023553   0.00022354 -9.47633e-05     -26.2574 
           0     0.030763  0.000200014 -8.63139e-05     -26.2578 
           0     0.038936    0.0002358 -0.000117344     -26.2581 
           0     0.048069  0.000251611 -0.000130096     -26.2585 
           0     0.058163  0.000201314 -9.01266e-05     -26.2588 
           0     0.069219  0.000185109  -6.7346e-05     -26.2593 
           0     0.081236  0.000220722  -9.9645e-05     -26.2597 
           0     0.094215  0.000193312 -7.89099e-05     -26.2601 
           0     0.108155  0.000193815 -7.54696e-05     -26.2605 
           0     0.123056  0.000187089 -7.10604e-05      -26.261 
           0     0.138918   0.00018157 -6.75291e-05     -26.2614 
           0     0.155744  0.000179123 -6.50352e-05     -26.2619 
           0     0.173529  0.000177398 -6.27414e-05     -26.2623 
           0     0.192276  0.000173892 -5.99354e-05     -26.2628 
           0     0.211984  0.000169551 -5.70002e-05     -26.2632 
           0     0.232655  0.000167603 -5.50646e-05     -26.2637 
           0     0.254285  0.000164054 -5.30094e-05     -26.2641 
           0     0.276877    0.0001614 -5.08973e-05     -26.2646 
           0     0.300431  0.000158668 -4.89012e-05     -26.2651 
           0     0.324946  0.000156097 -4.70378e-05     -26.2655 
           0     0.350424  0.000153708 -4.52364e-05      -26.266 
           0     0.376861  0.000151525 -4.34868e-05     -26.2665 
           0      0.40426  0.000149558  -4.1786e-05      -26.267 
           0     0.432621  0.000147805 -4.01317e-05     -26.2674 
           0     0.461945  0.000146261 -3.85158e-05     -26.2679 
           0     0.492228  0.000144907 -3.69386e-05     -26.2684 
           0     0.523472  0.000143723 -3.53975e-05     -26.2689 
           0     0.555678  0.000142679 -3.38911e-05     -26.2693 
           0     0.588845  0.000141736 -3.24158e-05     -26.2698 
           0     0.622976  0.000140861 -3.09725e-05     -26.2703 
           0     0.658066  0.000140005 -2.95621e-05     -26.2708 
           0     0.694117  0.000139126  -2.8182e-05     -26.2712 
           0      0.73113  0.000138181 -2.68397e-05     -26.2717 
           0     0.769107   0.00013713 -2.55278e-05     -26.2722 
           0     0.808042  0.000135941 -2.42562e-05     -26.2726 
           0     0.847939  0.000134599 -2.30093e-05     -26.2731 
           0     0.888797   0.00013309  -2.1807e-05     -26.2736 
           0      0.93062   0.00013143 -2.06345e-05      -26.274 
           0       0.9734  0.000129626 -1.94954e-05     -26.2745 
           0      1.01714  0.000127709 -1.83957e-05      -26.275 
           0      1.06185  0.000125701 -1.73272e-05     -26.2754 
           0      1.10751  0.000123627 -1.62885e-05     -26.2759 
           0      1.15414  0.000121512 -1.52836e-05     -26.2763 
           0      1.20173   0.00011937 -1.43145e-05     -26.2768 
           0      1.25028  0.000117203 -1.33682e-05     -26.2772 
           0      1.29979  0.000115011  -1.2473e-05     -26.2777 
           0      1.35026  0.000112773 -1.16068e-05     -26.2781 
           0       1.4017  0.000110462 -1.07747e-05     -26.2786 
           0      1.45409  0.000108056 -9.98105e-06      -26.279 
           0      1.50745  0.000105539 -9.22247e-06     -26.2794 
           0      1.56176  0.000102905 -8.49453e-06     -26.2799 
           0      1.61705  0.000100163 -7.79687e-06     -26.2803 
           0      1.67329  9.73341e-05 -7.13619e-06     -26.2807 
           0      1.73049  9.44533e-05 -6.52496e-06     -26.2811 
           0      1.78865  9.15925e-05 -5.93978e-06     -26.2816 
           0      1.84778  8.88658e-05 -5.35731e-06      -26.282 
           0      1.90786  8.62784e-05 -4.80893e-06     -26.2824 
           0      1.96891  8.39191e-05 -4.27245e-06     -26.2828 
           0      2.03092  8.18296e-05 -3.75745e-06     -26.2832 
           0      2.09389  8.00334e-05 -3.26596e-06     -26.2836 
           0      2.15782   7.8547e-05  -2.7943e-06      -26.284 
           0      2.22272   7.7374e-05 -2.33841e-06     -26.2844 
           0      2.28857   7.6502e-05 -1.89831e-06     -26.2848 
           0      2.35539  7.59009e-05 -1.48001e-06     -26.2851 
           0      2.42317  7.55265e-05  -1.0946e-06     -26.2855 
           0      2.49191  7.53282e-05 -7.53294e-07     -26.2859 
           0      2.56161  7.52633e-05 -4.57062e-07     -26.2863 
           0      2.63226  7.53046e-05 -2.04357e-07     -26.2866 
           0      2.70389  7.54008e-05  3.88658e-08      -26.287 
           0      2.77648  7.55091e-05  2.34794e-07     -26.2873 
           0      2.85002  7.56009e-05  3.00554e-07     -26.2877 
           0      2.92453  7.57414e-05  5.24508e-07      -26.288 
           0            3  7.57573e-05  6.07204e-07     -26.2884 
          20            0  9.97708e-20 -3.83999e-24     -25.7157 
          20      0.00048  9.94343e-06 -4.05535e-10     -25.7157 
          20     0.001922    3.525e-05 -1.73484e-09     -25.7157 
          20     0.004326  6.46641e-05 -4.49895e-09     -25.7157 
          20      0.00769  8.63428e-05 -1.00464e-08     -25.7157 
          20     0.012017  9.44186e-05 -2.10413e-08     -25.7157 
          20     0.017304  9.20712e-05 -4.16538e-08     -25.7157 
          20     0.023553  8.89546e-05 -7.73625e-08     -25.7157 
          20     0.030763   9.3686e-05 -1.34311e-07     -25.7157 
          20     0.038936  0.000106304 -2.18657e-07     -25.7157 
          20     0.048069   0.00011796 -3.36214e-07     -25.7157 
          20     0.058163  0.000122408 -4.92916e-07     -25.7157 
          20     0.069219  0.000130288 -6.95073e-07     -25.7157 
          20     0.081236  0.000145699 -9.46395e-07     -25.7157 
          20     0.094215  0.000153688  -1.2515e-06     -25.7157 
          20     0.108155  0.000165115 -1.61412e-06     -25.7157 
          20     0.123056   0.00017615  -2.0359e-06     -25.7157 
          20     0.138918   0.00018724 -2.51759e-06     -25.7157 
          20     0.155744  0.000198284 -3.05837e-06     -25.7157 
          20     0.173529   0.00020884 -3.65584e-06     -25.7157 
          20     0.192276  0.000218491 -4.30703e-06     -25.7157 
          20     0.211984  0.000227156  -5.0082e-06     -25.7157 
          20     0.232655  0.000234978 -5.75424e-06     -25.7157 
          20     0.254285  0.000241422 -6.53668e-06     -25.7157 
          20     0.276877  0.000246783 -7.34547e-06     -25.7157 
          20     0.300431   0.00025096 -8.16828e-06     -25.7157 
          20     0.324946  0.000254095 -8.99565e-06     -25.7157 
          20     0.350424  0.000256385 -9.81539e-06     -25.7157 
          20     0.376861  0.000258072 -1.06159e-05     -25.7157 
          20      0.40426  0.000259438 -1.13749e-05     -25.7157 
          20     0.432621  0.000260751 -1.20746e-05     -25.7157 
          20     0.461945  0.000262244 -1.26987e-05     -25.7157 
          20     0.492228  0.000264089 -1.32334e-05     -25.7157 
          20     0.523472  0.000266364 -1.36693e-05     -25.7156 
          20     0.555678  0.000269035 -1.40027e-05     -25.7156 
          20     0.588845  0.000271944 -1.42372e-05     -25.7156 
          20     0.622976  0.000274812  -1.4383e-05     -25.7156 
          20     0.658066  0.000277288 -1.44563e-05     -25.7156 
          20     0.694117   0.00027902 -1.44754e-05     -25.7156 
          20      0.73113  0.000279805 -1.44531e-05     -25.7156 
          20     0.769107  0.000279477 -1.44158e-05     -25.7155 
          20     0.808042  0.000277911  -1.4363e-05     -25.7155 
          20     0.847939  0.000275133 -1.43125e-05     -25.7155 
          20     0.888797  0.000271229 -1.42683e-05     -25.7155 
          20      0.93062  0.000266336 -1.42248e-05     -25.7155 
          20       0.9734  0.000260614 -1.41755e-05     -25.7154 
          20      1.01714  0.000254223 -1.41176e-05     -25.7154 
          20      1.06185  0.000247269 -1.40586e-05     -25.7154 
          20      1.10751  0.000239891 -1.39855e-05     -25.7154 
          20      1.15414  0.000232177 -1.38965e-05     -25.7153 
          20      1.20173  0.000224179  -1.3802e-05     -25.7153 
          20      1.25028  0.000216018 -1.36754e-05     -25.7153 
          20      1.29979  0.000207615 -1.35429e-05     -25.7152 
          20      1.35026  0.000199081 -1.33946e-05     -25.7152 
          20       1.4017  0.000190471 -1.32241e-05     -25.7152 
          20      1.45409  0.000181795 -1.30316e-05     -25.7151 
          20      1.50745   0.00017305 -1.28239e-05     -25.7151 
          20      1.56176  0.000164243 -1.26077e-05      -25.715 
          20      1.61705   0.00015544 -1.23752e-05      -25.715 
          20      1.67329  0.000146728 -1.21079e-05     -25.7149 
          20      1.73049  0.000138043 -1.18416e-05     -25.7149 
          20      1.78865  0.000129516 -1.15574e-05     -25.7148 
          20      1.84778  0.000121051 -1.12567e-05     -25.7148 
          20      1.90786  0.000112831 -1.09512e-05     -25.7147 
          20      1.96891  0.000104843 -1.06389e-05     -25.7146 
          20      2.03092  9.71079e-05 -1.03198e-05     -25.7146 
          20      2.09389  8.96695e-05  -9.9934e-06     -25.7145 
          20      2.15782  8.25609e-05 -9.66935e-06     -25.7144 
          20      2.22272  7.58152e-05 -9.35771e-06     -25.7144 
          20      2.28857  6.95091e-05 -9.03997e-06     -25.7143 
          20      2.35539  6.37005e-05 -8.70416e-06     -25.7142 
          20      2.42317  5.84517e-05 -8.34044e-06     -25.7141 
          20      2.49191  5.37842e-05 -7.96562e-06      -25.714 
          20      2.56161  4.96512e-05 -7.61057e-06      -25.714 
          20      2.63226  4.60415e-05 -7.27844e-06     -25.7139 
          20      2.70389  4.27513e-05 -7.07001e-06     -25.7138 
          20      2.77648  3.96884e-05 -7.01097e-06     -25.7137 
          20      2.85002  3.67588e-05 -7.11122e-06     -25.7136 
          20      2.92453  3.38035e-05 -7.47541e-06     -25.7135 
          20            3  3.08996e-05  -8.0931e-06     -25.7134 
          40            0           -0           -0     -25.1222 
          40      0.00048    8.727e-06 -1.95021e-10     -25.1222 
          40     0.001922   3.0912e-05  -2.4605e-09     -25.1222 
          40     0.004326  5.66285e-05 -1.18034e-08     -25.1222 
          40      0.00769  7.54839e-05 -3.64157e-08     -25.1222 
          40     0.012017  8.24518e-05 -8.74812e-08     -25.1222 
          40     0.017304  8.05942e-05 -1.78683e-07     -25.1222 
          40     0.023553  7.87521e-05 -3.25749e-07     -25.1222 
          40     0.030763   8.4839e-05 -5.45614e-07     -25.1222 
          40     0.038936   9.9107e-05 -8.55741e-07     -25.1222 
          40     0.048069  0.000113855 -1.27303e-06     -25.1222 
          40     0.058163  0.000123649 -1.81339e-06     -25.1222 
          40     0.069219  0.000138029  -2.4909e-06     -25.1222 
          40     0.081236  0.000160642 -3.31652e-06     -25.1222 
          40     0.094215  0.000178099  -4.2983e-06     -25.1222 
          40     0.108155  0.000199932 -5.44049e-06     -25.1222 
          40     0.123056  0.000222538 -6.74303e-06     -25.1222 
          40     0.138918   0.00024608 -8.20207e-06     -25.1222 
          40     0.155744  0.000270205 -9.81041e-06     -25.1222 
          40     0.173529  0.000294237 -1.15567e-05     -25.1222 
          40     0.192276  0.000317534 -1.34278e-05     -25.1222 
          40     0.211984  0.000339762 -1.54079e-05     -25.1222 
          40     0.232655  0.000360807 -1.74814e-05     -25.1222 
          40     0.254285  0.000379962 -1.96326e-05     -25.1222 
          40     0.276877  0.000397305  -2.1845e-05     -25.1222 
          40     0.300431  0.000412543  -2.4106e-05     -25.1221 
          40     0.324946  0.000425627 -2.64063e-05     -25.1221 
          40     0.350424  0.000436544 -2.87388e-05     -25.1221 
          40     0.376861  0.000445312 -3.10985e-05     -25.1221 
          40      0.40426   0.00045198  -3.3484e-05     -25.1221 
          40     0.432621  0.000456609 -3.58969e-05     -25.1221 
          40     0.461945  0.000459272 -3.83426e-05     -25.1221 
          40     0.492228  0.000460044 -4.08287e-05     -25.1221 
          40     0.523472  0.000458994 -4.33644e-05     -25.1221 
          40     0.555678  0.000456191 -4.59574e-05     -25.1221 
          40     0.588845  0.000451712 -4.86089e-05     -25.1221 
          40     0.622976  0.000445713 -5.13068e-05     -25.1221 
          40     0.658066  0.000438247 -5.40902e-05     -25.1221 
          40     0.694117  0.000429434  -5.6957e-05     -25.1221 
          40      0.73113  0.000419527 -5.98794e-05     -25.1221 
          40     0.769107  0.000408759 -6.28348e-05     -25.1221 
          40     0.808042  0.000397337 -6.58049e-05     -25.1221 
          40     0.847939  0.000385434 -6.87761e-05     -25.1221 
          40     0.888797  0.000373191 -7.17373e-05     -25.1221 
          40      0.93062  0.000360713 -7.46796e-05     -25.1221 
          40       0.9734  0.000348071 -7.75934e-05     -25.1221 
          40      1.01714  0.000335304 -8.04687e-05     -25.1221 
          40      1.06185  0.000322419 -8.32923e-05     -25.1221 
          40      1.10751  0.000309405 -8.60476e-05     -25.1221 
          40      1.15414  0.000296234  -8.8714e-05     -25.1221 
          40      1.20173  0.000282876 -9.12677e-05     -25.1221 
          40      1.25028  0.000269305  -9.3685e-05     -25.1221 
          40      1.29979  0.000255517 -9.59463e-05     -25.1221 
          40      1.35026  0.000241533 -9.80444e-05     -25.1221 
          40       1.4017  0.000227426  -9.9995e-05     -25.1221 
          40      1.45409  0.000213313 -0.000101854     -25.1221 
          40      1.50745  0.000199378  -0.00010373     -25.1221 
          40      1.56176  0.000185557 -0.000105084     -25.1221 
          40      1.61705  0.000171716 -0.000106282     -25.1221 
          40      1.67329   0.00015796 -0.000107314      -25.122 
          40      1.73049   0.00014439  -0.00010817      -25.122 
          40      1.78865  0.000131104 -0.000108842      -25.122 
          40      1.84778  0.000118193 -0.000109323      -25.122 
          40      1.90786  0.000105746 -0.000109608      -25.122 
          40      1.96891  9.38447e-05 -0.000109694      -25.122 
          40      2.03092    8.256e-05 -0.000109578      -25.122 
          40      2.09389  7.19546e-05 -0.000109262      -25.122 
          40      2.15782  6.20836e-05 -0.000108749      -25.122 
          40      2.22272  5.29879e-05 -0.000108044      -25.122 
          40      2.28857  4.46981e-05 -0.000107156      -25.122 
          40      2.35539  3.72315e-05 -0.000106093      -25.122 
          40      2.42317  3.05927e-05 -0.000104871     -25.1219 
          40      2.49191  2.47744e-05 -0.000103504     -25.1219 
          40      2.56161  1.97547e-05  -0.00010201     -25.1219 
          40      2.63226  1.54995e-05  -0.00010041     -25.1219 
          40      2.70389  1.19623e-05  -9.8726e-05     -25.1219 
          40      2.77648  9.08707e-06 -9.69817e-05     -25.1219 
          40      2.85002  6.80719e-06 -9.52016e-05     -25.1219 
          40      2.92453  5.04937e-06 -9.34104e-05     -25.1218 
          40            3   3.7358e-06 -9.16321e-05     -25.1218 
          60            0           -0           -0     -24.5658 
          60      0.00048  8.76518e-06 -1.34127e-10     -24.5658 
          60     0.001922   3.1209e-05 -1.76837e-09     -24.5658 
          60     0.004326  5.77491e-05 -8.54141e-09     -24.5658 
          60      0.00769  7.83164e-05 -2.63048e-08     -24.5658 
          60     0.012017  8.79576e-05 -6.28457e-08     -24.5658 
          60     0.017304  8.94432e-05 -1.27371e-07     -24.5658 
          60     0.023553  9.10663e-05 -2.30013e-07     -24.5658 
          60     0.030763  0.000100212 -3.81085e-07     -24.5658 
          60     0.038936  0.000116912 -5.90482e-07     -24.5658 
          60     0.048069   0.00013357 -8.66845e-07     -24.5658 
          60     0.058163  0.000144782 -1.21724e-06     -24.5658 
          60     0.069219  0.000159534 -1.64663e-06     -24.5658 
          60     0.081236   0.00018119 -2.15712e-06     -24.5658 
          60     0.094215  0.000196822 -2.74835e-06     -24.5658 
          60     0.108155  0.000215535 -3.41718e-06     -24.5658 
          60     0.123056   0.00023389 -4.15738e-06     -24.5658 
          60     0.138918   0.00025211 -4.96068e-06     -24.5658 
          60     0.155744  0.000269972 -5.81726e-06     -24.5658 
          60     0.173529  0.000286986 -6.71553e-06     -24.5658 
          60     0.192276  0.000302727 -7.64339e-06     -24.5658 
          60     0.211984  0.000317084 -8.58833e-06     -24.5658 
          60     0.232655  0.000330168 -9.53897e-06     -24.5658 
          60     0.254285  0.000341521 -1.04868e-05     -24.5658 
          60     0.276877  0.000351428 -1.14197e-05     -24.5658 
          60     0.300431  0.000359801 -1.23319e-05     -24.5658 
          60     0.324946  0.000366752 -1.32224e-05     -24.5658 
          60     0.350424  0.000372408 -1.40902e-05     -24.5658 
          60     0.376861  0.000376899 -1.49354e-05     -24.5658 
          60      0.40426  0.000380344   -1.576e-05     -24.5658 
          60     0.432621  0.000382843 -1.65698e-05     -24.5658 
          60     0.461945  0.000384463 -1.73744e-05     -24.5658 
          60     0.492228   0.00038523 -1.81877e-05     -24.5658 
          60     0.523472  0.000385122 -1.90263e-05     -24.5658 
          60     0.555678  0.000384065 -1.99054e-05     -24.5658 
          60     0.588845  0.000381937 -2.08309e-05     -24.5658 
          60     0.622976  0.000378547 -2.18028e-05     -24.5658 
          60     0.658066  0.000373846 -2.28869e-05     -24.5658 
          60     0.694117  0.000367648 -2.40885e-05     -24.5658 
          60      0.73113  0.000359744 -2.54034e-05     -24.5658 
          60     0.769107   0.00035005 -2.68287e-05     -24.5658 
          60     0.808042  0.000338604 -2.83619e-05     -24.5658 
          60     0.847939  0.000325554 -3.00002e-05     -24.5658 
          60     0.888797  0.000311153 -3.17391e-05     -24.5658 
          60      0.93062  0.000295731 -3.35711e-05     -24.5658 
          60       0.9734  0.000279675 -3.54836e-05     -24.5658 
          60      1.01714  0.000263394 -3.74594e-05     -24.5658 
          60      1.06185  0.000247286  -3.9475e-05     -24.5658 
          60      1.10751  0.000231706 -4.15009e-05     -24.5658 
          60      1.15414   0.00021693  -4.3503e-05     -24.5658 
          60      1.20173  0.000203132 -4.54445e-05     -24.5658 
          60      1.25028   0.00019036 -4.72914e-05     -24.5658 
          60      1.29979  0.000178542 -4.90192e-05     -24.5658 