Variables = x, y, u, v, p

Zone, I=2080, F=POINT
         -50            0            0            0      72.0766 
         -50      0.00048  3.66569e-05  3.28842e-09      72.0766 
         -50     0.001922  0.000129075  1.27452e-08      72.0766 
         -50     0.004326  0.000233712   2.7304e-08      72.0766 
         -50      0.00769  0.000305092  4.57562e-08      72.0766 
         -50     0.012017  0.000321293  6.73686e-08      72.0766 
         -50     0.017304  0.000295565  9.21789e-08      72.0766 
         -50     0.023553  0.000265589  1.20987e-07      72.0766 
         -50     0.030763  0.000263693   1.5485e-07      72.0766 
         -50     0.038936  0.000287783  1.94563e-07      72.0766 
         -50     0.048069  0.000301935  2.40465e-07      72.0766 
         -50     0.058163  0.000283762  2.93075e-07      72.0766 
         -50     0.069219  0.000279841  3.53837e-07      72.0766 
         -50     0.081236  0.000301553  4.23369e-07      72.0766 
         -50     0.094215  0.000292418  5.03192e-07      72.0766 
         -50     0.108155  0.000295789  5.95817e-07      72.0766 
         -50     0.123056  0.000295785  7.01709e-07      72.0766 
         -50     0.138918  0.000296085  8.23085e-07      72.0766 
         -50     0.155744  0.000297347  9.62735e-07      72.0766 
         -50     0.173529  0.000298401  1.12277e-06      72.0766 
         -50     0.192276  0.000298197  1.30355e-06      72.0766 
         -50     0.211984  0.000297458  1.50339e-06      72.0765 
         -50     0.232655  0.000297864  1.72099e-06      72.0765 
         -50     0.254285  0.000296688  1.95718e-06      72.0765 
         -50     0.276877   0.00029614  2.20067e-06      72.0765 
         -50     0.300431  0.000295176  2.47559e-06      72.0765 
         -50     0.324946  0.000293963  2.79102e-06      72.0765 
         -50     0.350424  0.000292619  3.15788e-06      72.0765 
         -50     0.376861  0.000291215  3.58382e-06      72.0764 
         -50      0.40426  0.000289791  4.06788e-06      72.0764 
         -50     0.432621  0.000288366  4.59529e-06      72.0764 
         -50     0.461945  0.000286963   5.1347e-06      72.0763 
         -50     0.492228  0.000285619  5.64001e-06      72.0763 
         -50     0.523472  0.000284394  6.06056e-06      72.0763 
         -50     0.555678  0.000283351  6.36369e-06      72.0762 
         -50     0.588845    0.0002825  6.57599e-06      72.0762 
         -50     0.622976  0.000281727  6.93118e-06      72.0761 
         -50     0.658066  0.000281132  7.49913e-06      72.0761 
         -50     0.694117  0.000280754  8.09697e-06       72.076 
         -50      0.73113  0.000280581  8.70906e-06       72.076 
         -50     0.769107  0.000280597  9.32602e-06      72.0759 
         -50     0.808042  0.000280777   9.9439e-06      72.0758 
         -50     0.847939  0.000281097  1.05633e-05      72.0758 
         -50     0.888797  0.000281528  1.11876e-05      72.0757 
         -50      0.93062  0.000282039  1.18212e-05      72.0756 
         -50       0.9734  0.000282602  1.24675e-05      72.0755 
         -50      1.01714   0.00028319  1.31272e-05      72.0754 
         -50      1.06185   0.00028378  1.37963e-05      72.0753 
         -50      1.10751  0.000284357  1.44653e-05      72.0752 
         -50      1.15414  0.000284908  1.51192e-05      72.0751 
         -50      1.20173  0.000285427  1.57389e-05      72.0749 
         -50      1.25028  0.000285916   1.6305e-05      72.0748 
         -50      1.29979  0.000286374  1.68047e-05      72.0746 
         -50      1.35026    0.0002868  1.72422e-05      72.0745 
         -50       1.4017  0.000287181  1.76537e-05      72.0743 
         -50      1.45409  0.000287482  1.81295e-05      72.0741 
         -50      1.50745   0.00028761  1.88301e-05       72.074 
         -50      1.56176  0.000287059  1.91473e-05      72.0738 
         -50      1.61705  0.000287221   1.9539e-05      72.0736 
         -50      1.67329  0.000287763  1.99551e-05      72.0734 
         -50      1.73049  0.000288406  2.03534e-05      72.0731 
         -50      1.78865   0.00028892  2.06999e-05      72.0729 
         -50      1.84778  0.000289132   2.0969e-05      72.0726 
         -50      1.90786  0.000288921   2.1144e-05      72.0724 
         -50      1.96891  0.000288218  2.12173e-05      72.0721 
         -50      2.03092  0.000287004  2.11903e-05      72.0718 
         -50      2.09389  0.000285303   2.1073e-05      72.0715 
         -50      2.15782  0.000283181  2.08836e-05      72.0712 
         -50      2.22272  0.000280737  2.06481e-05      72.0709 
         -50      2.28857  0.000278095   2.0399e-05      72.0705 
         -50      2.35539  0.000275396  2.01744e-05      72.0702 
         -50      2.42317  0.000272792  2.00164e-05      72.0698 
         -50      2.49191   0.00027043  1.99699e-05      72.0694 
         -50      2.56161  0.000268447  2.00805e-05       72.069 
         -50      2.63226  0.000266959  2.03923e-05      72.0686 
         -50      2.70389  0.000266052   2.0946e-05      72.0681 
         -50      2.77648  0.000265772  2.17761e-05      72.0677 
         -50      2.85002   0.00026612  2.29086e-05      72.0672 
         -50      2.92453  0.000267048   2.4358e-05      72.0667 
         -50            3  0.000268456  2.61246e-05      72.0662 
         -25            0  2.68971e-19  1.25653e-23      69.1906 
         -25      0.00048  2.67451e-05  1.30676e-09      69.1906 
         -25     0.001922  9.41125e-05   5.2772e-09      69.1906 
         -25     0.004326  0.000170183  1.21099e-08      69.1906 
         -25      0.00769  0.000221618  2.23098e-08      69.1906 
         -25     0.012017  0.000232341  3.68743e-08      69.1906 
         -25     0.017304  0.000212062  5.73224e-08      69.1906 
         -25     0.023553  0.000188398  8.56234e-08      69.1906 
         -25     0.030763  0.000185051  1.23895e-07      69.1906 
         -25     0.038936  0.000200501  1.74113e-07      69.1906 
         -25     0.048069  0.000208443  2.37874e-07      69.1906 
         -25     0.058163  0.000192505  3.16551e-07      69.1906 
         -25     0.069219  0.000186875  4.11474e-07      69.1906 
         -25     0.081236  0.000199945  5.23326e-07      69.1906 
         -25     0.094215  0.000190383   6.5245e-07      69.1906 
         -25     0.108155  0.000190033   7.9886e-07      69.1906 
         -25     0.123056  0.000187322  9.62088e-07      69.1906 
         -25     0.138918  0.000185015  1.14133e-06      69.1906 
         -25     0.155744  0.000183657  1.33536e-06      69.1906 
         -25     0.173529  0.000182441  1.54263e-06      69.1906 
         -25     0.192276   0.00018064  1.76164e-06      69.1906 
         -25     0.211984  0.000178812  1.99096e-06      69.1906 
         -25     0.232655  0.000178202  2.22921e-06      69.1906 
         -25     0.254285   0.00017681  2.47438e-06      69.1906 
         -25     0.276877  0.000176248  2.72613e-06      69.1906 
         -25     0.300431  0.000175728  2.98586e-06      69.1905 
         -25     0.324946  0.000175346  3.25367e-06      69.1905 
         -25     0.350424  0.000175151   3.5285e-06      69.1905 
         -25     0.376861  0.000175157  3.80831e-06      69.1905 
         -25      0.40426  0.000175349  4.09069e-06      69.1905 
         -25     0.432621  0.000175701  4.37338e-06      69.1905 
         -25     0.461945  0.000176188  4.65501e-06      69.1905 
         -25     0.492228  0.000176805  4.93572e-06      69.1905 
         -25     0.523472  0.000177566  5.21779e-06      69.1905 
         -25     0.555678  0.000178497   5.5055e-06      69.1905 
         -25     0.588845  0.000179588  5.80443e-06      69.1904 
         -25     0.622976  0.000180767  6.13561e-06      69.1904 
         -25     0.658066  0.000182122  6.50262e-06      69.1904 
         -25     0.694117  0.000183634  6.87534e-06      69.1904 
         -25      0.73113  0.000185273   7.2496e-06      69.1904 
         -25     0.769107  0.000187011  7.62263e-06      69.1903 
         -25     0.808042  0.000188811  7.99283e-06      69.1903 
         -25     0.847939  0.000190641  8.35981e-06      69.1903 
         -25     0.888797  0.000192468  8.72393e-06      69.1902 
         -25      0.93062  0.000194261  9.08605e-06      69.1902 
         -25       0.9734  0.000195996  9.44697e-06      69.1902 
         -25      1.01714  0.000197656  9.80727e-06      69.1901 
         -25      1.06185  0.000199232  1.01667e-05      69.1901 
         -25      1.10751  0.000200726  1.05239e-05      69.1901 
         -25      1.15414   0.00020215  1.08763e-05        69.19 
         -25      1.20173  0.000203528  1.12201e-05        69.19 
         -25      1.25028  0.000204891  1.15508e-05      69.1899 
         -25      1.29979  0.000206274  1.18638e-05      69.1898 
         -25      1.35026  0.000207712  1.21563e-05      69.1898 
         -25       1.4017  0.000209227  1.24292e-05      69.1897 
         -25      1.45409  0.000210819  1.26911e-05      69.1897 
         -25      1.50745  0.000212456  1.29628e-05      69.1896 
         -25      1.56176  0.000214671  1.32551e-05      69.1895 
         -25      1.61705  0.000216837  1.34989e-05      69.1894 
         -25      1.67329  0.000219002  1.37054e-05      69.1894 
         -25      1.73049  0.000221204  1.38859e-05      69.1893 
         -25      1.78865  0.000223475  1.40515e-05      69.1892 
         -25      1.84778  0.000225833  1.42126e-05      69.1891 
         -25      1.90786  0.000228288  1.43788e-05       69.189 
         -25      1.96891  0.000230839  1.45584e-05      69.1889 
         -25      2.03092  0.000233475  1.47582e-05      69.1888 
         -25      2.09389  0.000236175  1.49832e-05      69.1887 
         -25      2.15782  0.000238908  1.52357e-05      69.1886 
         -25      2.22272  0.000241636  1.55159e-05      69.1884 
         -25      2.28857  0.000244314  1.58208e-05      69.1883 
         -25      2.35539   0.00024689  1.61444e-05      69.1882 
         -25      2.42317  0.000249307  1.64776e-05       69.188 
         -25      2.49191  0.000251507  1.68075e-05      69.1879 
         -25      2.56161  0.000253431  1.71183e-05      69.1877 
         -25      2.63226  0.000255022  1.73909e-05      69.1876 
         -25      2.70389  0.000256228  1.76033e-05      69.1874 
         -25      2.77648  0.000257002  1.77313e-05      69.1872 
         -25      2.85002  0.000257309   1.7749e-05       69.187 
         -25      2.92453  0.000257126  1.76301e-05      69.1869 
         -25            3  0.000256443  1.73491e-05      69.1867 
           0            0  3.16587e-15 -2.01184e-15      66.7886 
           0      0.00048  0.000101442 -6.44667e-05      66.7888 
           0     0.001922  0.000350596 -0.000222808      66.7892 
           0     0.004326  0.000612292 -0.000388974      66.7899 
           0      0.00769   0.00075023 -0.000475748      66.7907 
           0     0.012017  0.000708751 -0.000446721      66.7916 
           0     0.017304  0.000546858 -0.000338587      66.7925 
           0     0.023553  0.000396137 -0.000235612      66.7933 
           0     0.030763  0.000357733 -0.000205032      66.7942 
           0     0.038936  0.000407966 -0.000236138      66.7952 
           0     0.048069   0.00041285 -0.000245653      66.7962 
           0     0.058163  0.000304327 -0.000184564      66.7973 
           0     0.069219  0.000267654 -0.000159036      66.7983 
           0     0.081236   0.00032426  -0.00019584      66.7994 
           0     0.094215  0.000261548 -0.000158691      66.8005 
           0     0.108155  0.000251421 -0.000154135      66.8016 
           0     0.123056  0.000231532 -0.000144923      66.8027 
           0     0.138918  0.000215567  -0.00013668      66.8038 
           0     0.155744  0.000205657 -0.000130639       66.805 
           0     0.173529  0.000197159 -0.000125327      66.8061 
           0     0.192276  0.000186264 -0.000119326      66.8073 
           0     0.211984  0.000176078 -0.000113539      66.8085 
           0     0.232655  0.000172654 -0.000109844      66.8097 
           0     0.254285  0.000165267 -0.000104611      66.8109 
           0     0.276877  0.000161137 -0.000100658      66.8121 
           0     0.300431  0.000157378 -9.67675e-05      66.8133 
           0     0.324946  0.000154363 -9.31256e-05      66.8145 
           0     0.350424  0.000151988 -8.97222e-05      66.8157 
           0     0.376861  0.000150069 -8.65325e-05       66.817 
           0      0.40426  0.000148554 -8.35341e-05      66.8182 
           0     0.432621   0.00014734 -8.07206e-05      66.8194 
           0     0.461945  0.000146357 -7.80714e-05      66.8206 
           0     0.492228  0.000145548  -7.5576e-05      66.8219 
           0     0.523472  0.000144873 -7.32241e-05      66.8231 
           0     0.555678  0.000144302 -7.10052e-05      66.8243 
           0     0.588845  0.000143816 -6.89059e-05      66.8256 
           0     0.622976  0.000143415 -6.69192e-05      66.8268 
           0     0.658066  0.000143101 -6.50379e-05       66.828 
           0     0.694117  0.000142886 -6.32506e-05      66.8292 
           0      0.73113  0.000142787 -6.15528e-05      66.8305 
           0     0.769107  0.000142824 -5.99354e-05      66.8317 
           0     0.808042  0.000143012  -5.8397e-05      66.8329 
           0     0.847939  0.000143377 -5.69168e-05      66.8341 
           0     0.888797  0.000143922  -5.5508e-05      66.8353 
           0      0.93062  0.000144658 -5.41574e-05      66.8365 
           0       0.9734  0.000145582 -5.28585e-05      66.8377 
           0      1.01714  0.000146688 -5.16115e-05      66.8389 
           0      1.06185  0.000147963 -5.04112e-05      66.8401 
           0      1.10751   0.00014939 -4.92538e-05      66.8413 
           0      1.15414   0.00015095 -4.81377e-05      66.8424 
           0      1.20173  0.000152623 -4.70613e-05      66.8436 
           0      1.25028  0.000154382 -4.60173e-05      66.8448 
           0      1.29979  0.000156195 -4.50112e-05      66.8459 
           0      1.35026  0.000158049  -4.4034e-05      66.8471 
           0       1.4017  0.000159932 -4.30859e-05      66.8482 
           0      1.45409  0.000161845 -4.21642e-05      66.8493 
           0      1.50745  0.000163796 -4.12639e-05      66.8505 
           0      1.56176  0.000165795  -4.0381e-05      66.8516 
           0      1.61705  0.000167848 -3.95151e-05      66.8527 
           0      1.67329  0.000169955 -3.86688e-05      66.8538 
           0      1.73049  0.000172126 -3.78434e-05      66.8549 
           0      1.78865  0.000174339 -3.70286e-05      66.8559 
           0      1.84778  0.000176519 -3.62181e-05       66.857 
           0      1.90786  0.000178649 -3.54414e-05      66.8581 
           0      1.96891  0.000180698 -3.46773e-05      66.8591 
           0      2.03092  0.000182567 -3.39344e-05      66.8602 
           0      2.09389  0.000184167 -3.32236e-05      66.8612 
           0      2.15782  0.000185422 -3.25539e-05      66.8622 
           0      2.22272  0.000186273 -3.19338e-05      66.8632 
           0      2.28857   0.00018668 -3.13717e-05      66.8642 
           0      2.35539  0.000186627 -3.08734e-05      66.8652 
           0      2.42317  0.000186131 -3.04363e-05      66.8662 
           0      2.49191  0.000185247 -3.00408e-05      66.8671 
           0      2.56161  0.000184087 -2.96351e-05      66.8681 
           0      2.63226  0.000182771 -2.91772e-05       66.869 
           0      2.70389  0.000181386 -2.86655e-05        66.87 
           0      2.77648  0.000180061 -2.80118e-05      66.8709 
           0      2.85002  0.000178886 -2.71703e-05      66.8718 
           0      2.92453  0.000177964 -2.62206e-05      66.8727 
           0            3  0.000177292 -2.50233e-05      66.8736 
          20            0  2.31993e-19  2.12592e-23      65.4048 
          20      0.00048  2.31148e-05  2.23398e-09      65.4048 
          20     0.001922   8.1877e-05  9.30509e-09      65.4048 
          20     0.004326  0.000150003  2.24498e-08      65.4048 
          20      0.00769  0.000199957  4.41681e-08      65.4048 
          20     0.012017  0.000218286  7.87406e-08      65.4048 
          20     0.017304   0.00021258  1.32486e-07      65.4048 
          20     0.023553   0.00020506   2.1389e-07      65.4048 
          20     0.030763  0.000214694  3.33292e-07      65.4048 
          20     0.038936  0.000239764  5.02626e-07      65.4048 
          20     0.048069  0.000258239  7.35135e-07      65.4048 
          20     0.058163  0.000256245  1.04581e-06      65.4048 
          20     0.069219  0.000261371  1.45156e-06      65.4048 
          20     0.081236   0.00028013   1.9693e-06      65.4048 
          20     0.094215  0.000278357  2.61738e-06      65.4048 
          20     0.108155   0.00028195  3.41525e-06      65.4048 
          20     0.123056  0.000281306  4.37848e-06      65.4048 
          20     0.138918  0.000278669  5.52356e-06      65.4048 
          20     0.155744   0.00027456  6.86643e-06      65.4048 
          20     0.173529   0.00026847  8.41949e-06      65.4048 
          20     0.192276  0.000260003  1.01908e-05      65.4048 
          20     0.211984  0.000249843  1.21822e-05      65.4048 
          20     0.232655  0.000239261  1.43934e-05      65.4048 
          20     0.254285  0.000226854  1.68281e-05      65.4048 
          20     0.276877  0.000214048  1.94709e-05      65.4048 
          20     0.300431  0.000200503  2.23072e-05      65.4047 
          20     0.324946  0.000186224  2.53158e-05      65.4047 
          20     0.350424  0.000171209  2.84741e-05      65.4047 
          20     0.376861  0.000155515  3.17588e-05      65.4047 
          20      0.40426  0.000139107  3.51491e-05      65.4047 
          20     0.432621   0.00012207  3.86282e-05      65.4047 
          20     0.461945  0.000104586  4.21848e-05      65.4047 
          20     0.492228  8.69461e-05  4.58145e-05      65.4046 
          20     0.523472    6.955e-05  4.95217e-05      65.4046 
          20     0.555678  5.29111e-05  5.33187e-05      65.4046 
          20     0.588845  3.76303e-05   5.7225e-05      65.4046 
          20     0.622976  2.43384e-05  6.12646e-05      65.4045 
          20     0.658066  1.36009e-05  6.54593e-05      65.4045 
          20     0.694117  5.75285e-06  6.98221e-05      65.4045 
          20      0.73113  6.63865e-07  7.43433e-05      65.4044 
          20     0.769107 -1.74585e-06  7.90092e-05      65.4044 
          20     0.808042 -1.73686e-06  8.37997e-05      65.4043 
          20     0.847939  2.22139e-07  8.86787e-05      65.4043 
          20     0.888797  3.69773e-06  9.36087e-05      65.4042 
          20      0.93062  8.27766e-06  9.85521e-05      65.4042 
          20       0.9734  1.35944e-05  0.000103472      65.4041 
          20      1.01714  1.93507e-05  0.000108338      65.4041 
          20      1.06185  2.53172e-05  0.000113119       65.404 
          20      1.10751  3.13554e-05   0.00011779      65.4039 
          20      1.15414   3.7401e-05  0.000122326      65.4038 
          20      1.20173  4.34277e-05  0.000126702      65.4038 
          20      1.25028  4.94119e-05  0.000130904      65.4037 
          20      1.29979  5.53589e-05  0.000134909      65.4036 
          20      1.35026  6.12939e-05  0.000138706      65.4035 
          20       1.4017  6.72373e-05  0.000142277      65.4034 
          20      1.45409  7.32008e-05  0.000145605      65.4033 
          20      1.50745  7.91807e-05  0.000148676      65.4032 
          20      1.56176  8.51558e-05  0.000151477      65.4031 
          20      1.61705  9.10922e-05  0.000153998      65.4029 
          20      1.67329  9.69445e-05  0.000156228      65.4028 
          20      1.73049  0.000102658  0.000158158      65.4027 
          20      1.78865  0.000108207  0.000159775      65.4025 
          20      1.84778  0.000113514  0.000161086      65.4024 
          20      1.90786  0.000118571  0.000162077      65.4022 
          20      1.96891  0.000123336  0.000162755      65.4021 
          20      2.03092   0.00012778  0.000163125      65.4019 
          20      2.09389  0.000131898  0.000163194      65.4017 
          20      2.15782  0.000135714  0.000162978      65.4016 
          20      2.22272  0.000139281  0.000162497      65.4014 
          20      2.28857  0.000142681  0.000161776      65.4012 
          20      2.35539  0.000146031  0.000160861       65.401 
          20      2.42317  0.000149463  0.000159796      65.4008 
          20      2.49191  0.000153085  0.000158607      65.4005 
          20      2.56161  0.000156951  0.000157317      65.4003 
          20      2.63226  0.000161038  0.000155949      65.4001 
          20      2.70389  0.000165259  0.000154457      65.3999 
          20      2.77648  0.000169472  0.000152829      65.3996 
          20      2.85002  0.000173486  0.000150985      65.3994 
          20      2.92453  0.000177068  0.000148886      65.3991 
          20            3  0.000180072  0.000146485      65.3988 
          40            0           -0           -0      63.8816 
          40      0.00048  2.20202e-05  3.21977e-10      63.8816 
          40     0.001922  7.86499e-05  1.57791e-09      63.8816 
          40     0.004326  0.000146441  4.71185e-09      63.8816 
          40      0.00769  0.000200791  1.15357e-08      63.8816 
          40     0.012017  0.000229609  2.50605e-08      63.8816 
          40     0.017304   0.00023948  4.98323e-08      63.8816 
          40     0.023553  0.000249983  9.23124e-08      63.8816 
          40     0.030763  0.000277746  1.61131e-07      63.8816 
          40     0.038936  0.000320944  2.67329e-07      63.8816 
          40     0.048069  0.000359611  4.24367e-07      63.8816 
          40     0.058163  0.000381017  6.48236e-07      63.8816 
          40     0.069219  0.000409316  9.57321e-07      63.8816 
          40     0.081236  0.000449873  1.37195e-06      63.8816 
          40     0.094215  0.000471852  1.91383e-06      63.8816 
          40     0.108155  0.000497876  2.60526e-06      63.8816 
          40     0.123056  0.000519016  3.46914e-06      63.8816 
          40     0.138918  0.000536931  4.52723e-06      63.8816 
          40     0.155744  0.000551806  5.79973e-06      63.8816 
          40     0.173529  0.000562979  7.30412e-06      63.8816 
          40     0.192276  0.000569998  9.05608e-06      63.8816 
          40     0.211984  0.000573474  1.10682e-05      63.8816 
          40     0.232655  0.000574635  1.33494e-05      63.8816 
          40     0.254285  0.000572436  1.59016e-05      63.8816 
          40     0.276877  0.000568533   1.8733e-05      63.8816 
          40     0.300431  0.000562876  2.18417e-05      63.8816 
          40     0.324946  0.000556069  2.52191e-05      63.8816 
          40     0.350424  0.000548676  2.88587e-05      63.8816 
          40     0.376861  0.000541201  3.27536e-05      63.8816 
          40      0.40426  0.000534076  3.68967e-05      63.8816 
          40     0.432621  0.000527649  4.12779e-05      63.8816 
          40     0.461945  0.000522189  4.58828e-05      63.8816 
          40     0.492228  0.000517884  5.06913e-05      63.8816 
          40     0.523472  0.000514839  5.56816e-05      63.8816 
          40     0.555678  0.000513065  6.08343e-05      63.8816 
          40     0.588845  0.000512447  6.61434e-05      63.8816 
          40     0.622976  0.000512722  7.16168e-05      63.8816 
          40     0.658066  0.000513746  7.71428e-05      63.8816 
          40     0.694117  0.000515122  8.27075e-05      63.8816 
          40      0.73113  0.000516421   8.8316e-05      63.8816 
          40     0.769107  0.000517244  9.39615e-05      63.8816 
          40     0.808042   0.00051723  9.96251e-05      63.8815 
          40     0.847939  0.000516067  0.000105281      63.8815 
          40     0.888797  0.000513496  0.000110895      63.8815 
          40      0.93062  0.000509315  0.000116434      63.8815 
          40       0.9734  0.000503383  0.000121862      63.8815 
          40      1.01714   0.00049562  0.000127149      63.8815 
          40      1.06185  0.000486005  0.000132273      63.8815 
          40      1.10751  0.000474574  0.000137221      63.8815 
          40      1.15414  0.000461418  0.000141992      63.8815 
          40      1.20173  0.000446676  0.000146591      63.8815 
          40      1.25028  0.000430524  0.000151026      63.8815 
          40      1.29979  0.000413179  0.000155298      63.8814 
          40      1.35026  0.000394885  0.000159383      63.8814 
          40       1.4017  0.000375923  0.000163204      63.8814 
          40      1.45409  0.000356601    0.0001666      63.8814 
          40      1.50745  0.000337259  0.000169299      63.8814 
          40      1.56176  0.000317415  0.000172444      63.8814 
          40      1.61705  0.000297515  0.000175199      63.8813 
          40      1.67329  0.000277746  0.000177569      63.8813 
          40      1.73049  0.000258281  0.000179562      63.8813 
          40      1.78865  0.000239278  0.000181187      63.8813 
          40      1.84778  0.000220885  0.000182452      63.8813 
          40      1.90786  0.000203234  0.000183367      63.8812 
          40      1.96891  0.000186439  0.000183945      63.8812 
          40      2.03092  0.000170596  0.000184198      63.8812 
          40      2.09389  0.000155785  0.000184137      63.8812 
          40      2.15782  0.000142068  0.000183778      63.8811 
          40      2.22272  0.000129486  0.000183134      63.8811 
          40      2.28857  0.000118065  0.000182221      63.8811 
          40      2.35539  0.000107812  0.000181053       63.881 
          40      2.42317  9.87144e-05  0.000179648       63.881 
          40      2.49191  9.07499e-05   0.00017802       63.881 
          40      2.56161  8.38778e-05  0.000176188      63.8809 
          40      2.63226  7.80458e-05  0.000174167      63.8809 
          40      2.70389  7.31904e-05  0.000171974      63.8808 
          40      2.77648  6.92411e-05  0.000169628      63.8808 
          40      2.85002  6.61192e-05  0.000167144      63.8808 
          40      2.92453  6.37423e-05   0.00016454      63.8807 
          40            3  6.20262e-05  0.000161831      63.8807 
          60            0           -0           -0      62.4528 
          60      0.00048  1.98013e-05  1.35754e-10      62.4528 
          60     0.001922  7.01998e-05  1.89564e-10      62.4528 
          60     0.004326   0.00012884 -8.53613e-10      62.4528 
          60      0.00769   0.00017235 -4.52978e-09      62.4528 
          60     0.012017   0.00018942 -1.26971e-08      62.4528 
          60     0.017304  0.000186736 -2.72743e-08      62.4528 
          60     0.023553  0.000183491 -5.00004e-08      62.4528 
          60     0.030763  0.000196102 -8.21678e-08      62.4528 
          60     0.038936  0.000223308 -1.24418e-07      62.4528 
          60     0.048069  0.000246472 -1.76498e-07      62.4528 
          60     0.058163  0.000253882 -2.37129e-07      62.4528 
          60     0.069219   0.00026917 -3.03846e-07      62.4528 
          60     0.081236    0.0002979 -3.72975e-07      62.4528 
          60     0.094215  0.000310855 -4.39794e-07      62.4528 
          60     0.108155  0.000330004 -4.98646e-07      62.4528 
          60     0.123056  0.000346966  -5.4276e-07      62.4528 
          60     0.138918  0.000363414 -5.65026e-07      62.4528 
          60     0.155744  0.000379509 -5.58186e-07      62.4528 
          60     0.173529  0.000394504 -5.14928e-07      62.4528 
          60     0.192276  0.000407763 -4.27952e-07      62.4528 
          60     0.211984  0.000419597 -2.90226e-07      62.4528 
          60     0.232655  0.000430852 -9.56972e-08      62.4528 
          60     0.254285  0.000440148  1.59035e-07      62.4528 
          60     0.276877  0.000448677   4.8175e-07      62.4528 
          60     0.300431  0.000455987  8.75101e-07      62.4528 
          60     0.324946   0.00046227  1.33857e-06      62.4528 
          60     0.350424    0.0004677  1.87293e-06      62.4528 
          60     0.376861  0.000472432  2.47929e-06      62.4528 
          60      0.40426  0.000476598  3.15825e-06      62.4528 
          60     0.432621  0.000480305  3.90857e-06      62.4528 
          60     0.461945  0.000483643  4.72622e-06      62.4528 
          60     0.492228  0.000486682  5.60394e-06      62.4528 
          60     0.523472   0.00048947  6.53251e-06      62.4528 
          60     0.555678  0.000492021  7.50381e-06      62.4528 
          60     0.588845  0.000494274  8.51739e-06      62.4528 
          60     0.622976  0.000496043  9.57893e-06      62.4528 
          60     0.658066  0.000497366  1.06258e-05      62.4527 
          60     0.694117  0.000498052  1.16514e-05      62.4527 
          60      0.73113  0.000497802  1.26571e-05      62.4527 
          60     0.769107  0.000496357  1.36369e-05      62.4527 
          60     0.808042  0.000493512  1.45785e-05      62.4527 
          60     0.847939  0.000489118  1.54656e-05      62.4527 
          60     0.888797  0.000483087  1.62793e-05      62.4527 
          60      0.93062  0.000475393  1.70011e-05      62.4527 
          60       0.9734  0.000466076   1.7615e-05      62.4527 
          60      1.01714  0.000455232  1.81106e-05      62.4527 
          60      1.06185  0.000443013  1.84852e-05      62.4527 
          60      1.10751  0.000429614  1.87451e-05      62.4527 
          60      1.15414  0.000415265  1.89059e-05      62.4527 
          60      1.20173  0.000400218  1.89913e-05      62.4527 
          60      1.25028  0.000384727  1.90282e-05      62.4527 
          60      1.29979   0.00036903  1.90397e-05      62.4527 