Variables = x, y, u, v, p

Zone, I=416, F=POINT
         -50            0            0            0     -223.732 
         -50     0.013333 -0.000113001 -2.94206e-08     -223.732 
         -50     0.053333 -0.000111068  -7.8102e-10     -223.732 
         -50         0.12 -0.000119002  1.30977e-07     -223.732 
         -50     0.213332 -0.000126628  3.23313e-07     -223.731 
         -50     0.333332 -0.000131713  3.26339e-07     -223.731 
         -50         0.48 -0.000133426 -6.87729e-08     -223.731 
         -50     0.653331 -0.000133255 -4.13512e-07     -223.731 
         -50     0.853332 -0.000131748 -8.96395e-07      -223.73 
         -50         1.08 -0.000129699 -1.42007e-06      -223.73 
         -50      1.33333 -0.000127273 -2.41794e-06     -223.729 
         -50      1.61333 -0.000124223 -3.18902e-06     -223.728 
         -50         1.92 -0.000113727 -2.54625e-06     -223.726 
         -50      2.25333 -9.74946e-05 -2.00026e-06     -223.724 
         -50      2.61333 -8.45703e-05  -2.1267e-06     -223.722 
         -50            3 -8.05022e-05 -2.74665e-06     -223.719 
         -25            0 -1.05647e-19 -6.98101e-24     -217.794 
         -25     0.013333 -9.62614e-05  -1.9118e-08     -217.794 
         -25     0.053333 -9.23286e-05 -1.53077e-07     -217.794 
         -25         0.12 -9.02333e-05 -6.29388e-07     -217.794 
         -25     0.213332 -8.40081e-05  -1.5966e-06     -217.794 
         -25     0.333332 -7.84581e-05   -3.005e-06     -217.794 
         -25         0.48 -7.63064e-05 -4.80309e-06     -217.794 
         -25     0.653331 -7.83736e-05 -6.83585e-06     -217.794 
         -25     0.853332 -8.21191e-05 -8.90573e-06     -217.794 
         -25         1.08 -8.45064e-05 -1.07614e-05     -217.793 
         -25      1.33333 -8.58445e-05 -1.22452e-05     -217.793 
         -25      1.61333 -8.82133e-05 -1.31875e-05     -217.793 
         -25         1.92 -9.02468e-05 -1.32225e-05     -217.792 
         -25      2.25333 -9.68244e-05 -1.35164e-05     -217.792 
         -25      2.61333 -0.000109155 -1.51526e-05     -217.791 
         -25            3 -0.000119205 -1.71039e-05      -217.79 
           0            0            0            0     -212.231 
           0     0.013333 -0.000137981  0.000131679     -212.236 
           0     0.053333 -0.000119651   6.2625e-05     -212.245 
           0         0.12 -0.000101507  4.98404e-05     -212.256 
           0     0.213332 -9.47651e-05  3.76628e-05     -212.266 
           0     0.333332 -9.55765e-05   3.1616e-05     -212.277 
           0         0.48 -9.46102e-05  2.83576e-05     -212.288 
           0     0.653331 -9.03264e-05  2.70247e-05     -212.298 
           0     0.853332  -8.4875e-05  2.69067e-05     -212.308 
           0         1.08 -8.20317e-05  2.74304e-05     -212.318 
           0      1.33333 -8.14555e-05  2.77097e-05     -212.327 
           0      1.61333 -8.07987e-05  2.78226e-05     -212.336 
           0         1.92 -8.14092e-05  2.70995e-05     -212.344 
           0      2.25333 -8.87184e-05  2.50367e-05     -212.352 
           0      2.61333   -9.959e-05  2.23491e-05     -212.359 
           0            3 -0.000100388  2.39036e-05     -212.366 
          20            0  6.68465e-05 -3.99099e-05     -208.413 
          20     0.013333  6.30078e-05 -3.98057e-05     -208.413 
          20     0.053333  5.21172e-05 -3.93371e-05     -208.413 
          20         0.12  3.66533e-05 -3.80193e-05     -208.413 
          20     0.213332  2.20794e-05 -3.49525e-05     -208.413 
          20     0.333332  1.45833e-05 -2.92223e-05     -208.413 
          20         0.48  1.24531e-05 -2.02965e-05     -208.413 
          20     0.653331   7.6952e-06  -9.0349e-06     -208.413 
          20     0.853332 -7.69673e-06  3.33738e-06     -208.413 
          20         1.08  -3.6157e-05  1.57816e-05     -208.413 
          20      1.33333 -7.23181e-05  2.74609e-05     -208.412 
          20      1.61333 -0.000107601  3.70614e-05     -208.412 
          20         1.92 -0.000136819  4.38386e-05     -208.412 
          20      2.25333 -0.000155128  4.76727e-05     -208.412 
          20      2.61333 -0.000164458  4.84847e-05     -208.411 
          20            3 -0.000163691  4.81899e-05     -208.411 
          40            0           -0           -0     -204.419 
          40     0.013333 -0.000100502  1.18493e-07     -204.419 
          40     0.053333 -0.000143265  1.88983e-06     -204.419 
          40         0.12 -0.000227282  7.55583e-06     -204.419 
          40     0.213332 -0.000279016   1.6343e-05     -204.419 
          40     0.333332 -0.000233397  2.45341e-05     -204.419 
          40         0.48 -8.80395e-05  3.04565e-05     -204.419 
          40     0.653331  6.43793e-05  3.22722e-05     -204.418 
          40     0.853332  0.000124997  2.60441e-05     -204.418 
          40         1.08  0.000140694  1.46382e-05     -204.418 
          40      1.33333  0.000137377  5.77297e-07     -204.417 
          40      1.61333  0.000112696  -1.5369e-05     -204.417 
          40         1.92  7.25148e-05 -3.16484e-05     -204.416 
          40      2.25333     2.78e-05 -4.63274e-05     -204.415 
          40      2.61333 -1.25165e-05 -5.83227e-05     -204.414 
          40            3 -4.28084e-05 -6.63733e-05     -204.413 
          60            0           -0           -0     -200.304 
          60     0.013333 -0.000373035  2.85134e-07     -200.304 
          60     0.053333  -0.00112709  3.29065e-06     -200.304 
          60         0.12  -0.00201506  8.55607e-06     -200.304 
          60     0.213332  -0.00258265  4.84885e-06     -200.304 
          60     0.333332  -0.00269707 -2.25489e-05     -200.304 
          60         0.48  -0.00262139 -7.76886e-05     -200.304 
          60     0.653331  -0.00258497 -0.000148564     -200.304 
          60     0.853332   -0.0024662 -0.000211328     -200.304 
          60         1.08  -0.00211088 -0.000254038     -200.304 
          60      1.33333  -0.00159092 -0.000282821     -200.304 
          60      1.61333 -0.000997598 -0.000305252     -200.304 
          60         1.92 -0.000355542 -0.000316777     -200.304 
          60      2.25333  0.000153792 -0.000314758     -200.304 
          60      2.61333  0.000474383 -0.000303565     -200.304 
          60            3  0.000648272 -0.000285601     -200.303 
          80            0 -1.57222e-19 -1.05036e-25     -196.236 
          80     0.013333 -0.000259349  1.95326e-07     -196.236 
          80     0.053333 -0.000724511  2.34123e-06     -196.236 
          80         0.12  -0.00131489  6.99636e-06     -196.236 
          80     0.213332  -0.00177512  8.96301e-06     -196.236 
          80     0.333332  -0.00200138  1.01416e-06     -196.236 
          80         0.48  -0.00209195 -1.92612e-05     -196.236 
          80     0.653331  -0.00214288 -4.64471e-05     -196.236 
          80     0.853332  -0.00202759 -6.49573e-05     -196.236 
          80         1.08  -0.00156758 -5.88211e-05     -196.236 
          80      1.33333  -0.00100416 -3.27278e-05     -196.236 
          80      1.61333 -0.000586856 -6.01674e-06     -196.236 
          80         1.92 -0.000194156  1.75636e-05     -196.236 
          80      2.25333  0.000118001  3.79964e-05     -196.236 
          80      2.61333  0.000329013  5.32413e-05     -196.236 
          80            3  0.000450468  6.53818e-05     -196.236 
         100            0            0            0     -192.176 
         100     0.013333  -0.00012773  5.73269e-08     -192.176 
         100     0.053333 -0.000226176  6.46975e-07     -192.176 
         100         0.12 -0.000331195  1.62749e-06     -192.176 
         100     0.213332 -0.000364816  8.68863e-07     -192.176 
         100     0.333332 -0.000319068 -3.84969e-06     -192.176 
         100         0.48 -0.000245305 -1.20677e-05     -192.176 
         100     0.653331 -0.000176868 -2.08644e-05     -192.176 
         100     0.853332   -9.689e-05 -2.66179e-05     -192.176 
         100         1.08  4.89686e-06 -2.73117e-05     -192.176 
         100      1.33333  6.40801e-05 -2.51685e-05     -192.176 
         100      1.61333  5.60781e-05 -2.39346e-05     -192.176 
         100         1.92  5.40504e-05 -2.19942e-05     -192.176 
         100      2.25333  4.70554e-05 -1.83002e-05     -192.176 
         100      2.61333  2.75313e-05 -1.38278e-05     -192.176 
         100            3  5.63844e-06 -8.86886e-06     -192.176 
         150            0            0            0     -182.027 
         150     0.013333 -0.000100477 -4.90383e-07     -182.027 
         150     0.053333 -1.50243e-05 -7.13164e-06     -182.027 
         150         0.12  0.000323176 -3.05421e-05     -182.027 
         150     0.213332  0.000843483 -7.61866e-05     -182.027 
         150     0.333332   0.00129137  -0.00013956     -182.027 
         150         0.48   0.00151112 -0.000213178     -182.027 
         150     0.653331   0.00148874 -0.000294961     -182.027 
         150     0.853332   0.00124491 -0.000386487     -182.027 
         150         1.08  0.000886764 -0.000482397     -182.027 
         150      1.33333  0.000584209  -0.00056991     -182.027 
         150      1.61333  0.000340236 -0.000638929     -182.027 
         150         1.92  7.52783e-05 -0.000683046     -182.027 
         150      2.25333 -0.000146164 -0.000698897     -182.027 
         150      2.61333 -0.000309758 -0.000686341     -182.027 
         150            3 -0.000421766  -0.00065009     -182.027 
         200            0           -0           -0     -171.867 
         200     0.013333 -5.60259e-05   7.9461e-08     -171.867 
         200     0.053333  9.15292e-06     1.23e-06     -171.867 
         200         0.12  3.04123e-05  5.71357e-06     -171.867 
         200     0.213332 -7.15759e-06  1.54275e-05     -171.867 
         200     0.333332 -6.04878e-05  3.01899e-05     -171.867 
         200         0.48 -8.07924e-05  4.83997e-05     -171.867 
         200     0.653331 -5.48741e-05  6.89505e-05     -171.867 
         200     0.853332  2.12418e-06  9.10191e-05     -171.867 
         200         1.08  4.30286e-05  0.000111926     -171.867 
         200      1.33333  3.15869e-05   0.00012818     -171.867 
         200      1.61333  6.61154e-07  0.000139154     -171.867 
         200         1.92 -2.30572e-05  0.000144732     -171.867 
         200      2.25333 -4.69014e-05  0.000144288     -171.867 
         200      2.61333 -7.10469e-05  0.000138117     -171.867 
         200            3 -9.12711e-05  0.000127037     -171.867 
         250            0 -8.09033e-20  9.32958e-26     -161.685 
         250     0.013333 -4.61712e-05  1.82105e-07     -161.685 
         250     0.053333  1.45077e-05  2.77721e-06     -161.685 
         250         0.12 -4.95386e-05  1.27809e-05     -161.685 
         250     0.213332 -0.000270858  3.46707e-05     -161.685 
         250     0.333332 -0.000548487  6.88699e-05     -161.685 
         250         0.48 -0.000753696  0.000112085     -161.685 
         250     0.653331 -0.000832873  0.000160857     -161.685 
         250     0.853332 -0.000796333  0.000213267     -161.685 
         250         1.08 -0.000689722   0.00026698     -161.685 
         250      1.33333  -0.00057296  0.000317952     -161.685 
         250      1.61333   -0.0004642  0.000361931     -161.685 
         250         1.92 -0.000339541  0.000394994     -161.685 
         250      2.25333 -0.000217596  0.000414279     -161.685 
         250      2.61333 -0.000107231  0.000418323     -161.685 
         250            3 -1.38859e-05   0.00040751     -161.685 
         300            0 -7.29811e-20  2.30788e-25     -151.479 
         300     0.013333  8.67518e-05 -1.27949e-07     -151.479 
         300     0.053333  0.000571453 -1.60796e-06     -151.479 
         300         0.12   0.00118786 -5.17921e-06     -151.479 
         300     0.213332   0.00169249 -7.34775e-06     -151.479 
         300     0.333332   0.00192367  -1.4365e-06     -151.479 
         300         0.48    0.0019208  1.70033e-05     -151.479 
         300     0.653331   0.00182087   4.7022e-05     -151.479 
         300     0.853332   0.00169431  8.35662e-05     -151.479 
         300         1.08   0.00151348   0.00012074     -151.479 
         300      1.33333   0.00125317  0.000154652     -151.479 
         300      1.61333  0.000941274  0.000184449     -151.479 
         300         1.92  0.000598771  0.000208827     -151.479 
         300      2.25333  0.000257637  0.000225659     -151.479 
         300      2.61333 -5.64127e-05  0.000234153     -151.479 
         300            3 -0.000318919  0.000233954     -151.479 
         350            0            0            0     -141.247 
         350     0.013333 -6.47273e-05 -2.07453e-07     -141.247 
         350     0.053333  5.31563e-05 -2.96836e-06     -141.247 
         350         0.12  0.000288532 -1.23926e-05     -141.247 
         350     0.213332  0.000573915 -2.98988e-05     -141.247 
         350     0.333332  0.000778144 -5.25437e-05     -141.247 
         350         0.48  0.000847173 -7.65552e-05     -141.247 
         350     0.653331  0.000810918 -0.000101387     -141.247 
         350     0.853332  0.000693416 -0.000129609     -141.247 
         350         1.08  0.000505041 -0.000162729     -141.247 
         350      1.33333  0.000313515 -0.000197322     -141.247 
         350      1.61333  0.000176992 -0.000227591     -141.247 
         350         1.92  5.32713e-05 -0.000250915     -141.247 
         350      2.25333 -6.35724e-05 -0.000266052     -141.247 
         350      2.61333 -0.000167133 -0.000271849     -141.247 
         350            3 -0.000250473 -0.000267987     -141.247 
         400            0           -0           -0     -130.988 
         400     0.013333 -0.000110685 -1.73983e-07     -130.988 
         400     0.053333 -0.000110888 -2.59476e-06     -130.988 
         400         0.12 -6.70316e-06 -1.15555e-05     -130.988 
         400     0.213332  0.000211541 -3.02304e-05     -130.988 
         400     0.333332  0.000440278 -5.79986e-05     -130.988 
         400         0.48  0.000581081 -9.16473e-05     -130.988 
         400     0.653331  0.000610092 -0.000128834     -130.988 
         400     0.853332   0.00054345 -0.000169444     -130.988 
         400         1.08  0.000408432 -0.000213295     -130.988 
         400      1.33333  0.000268947 -0.000257058     -130.988 
         400      1.61333  0.000173576 -0.000295786     -130.988 
         400         1.92  8.63903e-05 -0.000326697     -130.988 
         400      2.25333 -1.15262e-06  -0.00034794     -130.988 
         400      2.61333 -8.30132e-05 -0.000357871     -130.988 
         400            3 -0.000151964 -0.000355671     -130.988 
         450            0           -0           -0     -120.713 
         450     0.013333 -0.000262885  2.60565e-07     -120.713 
         450     0.053333 -0.000774413  3.65605e-06     -120.713 
         450         0.12   -0.0015505  1.47355e-05     -120.713 
         450     0.213332  -0.00232914   3.3401e-05     -120.713 
         450     0.333332  -0.00282227  5.26392e-05     -120.713 
         450         0.48  -0.00294114  6.40386e-05     -120.713 
         450     0.653331   -0.0028093  6.46172e-05     -120.713 
         450     0.853332  -0.00257102  5.73772e-05     -120.713 
         450         1.08  -0.00228132  4.67959e-05     -120.713 
         450      1.33333  -0.00195117   3.5107e-05     -120.713 
         450      1.61333  -0.00159117  2.23628e-05     -120.713 
         450         1.92  -0.00119791  8.66681e-06     -120.713 
         450      2.25333 -0.000785086 -5.33758e-06     -120.713 
         450      2.61333 -0.000376508 -1.88875e-05     -120.713 
         450            3 -3.50854e-06 -3.12033e-05     -120.713 
         500            0           -0           -0     -110.426 
         500     0.013333  0.000453016 -5.58902e-08     -110.426 
         500     0.053333   0.00185825  6.42017e-09     -110.426 
         500         0.12   0.00347203  5.58076e-06     -110.426 
         500     0.213332   0.00455687  3.20953e-05     -110.426 
         500     0.333332    0.0047945  9.74362e-05     -110.426 
         500         0.48   0.00446905   0.00020837     -110.426 
         500     0.653331   0.00406816  0.000357153     -110.426 
         500     0.853332     0.003818  0.000527728     -110.426 
         500         1.08   0.00357298   0.00070053     -110.426 
         500      1.33333   0.00310785  0.000859109     -110.426 
         500      1.61333   0.00246575   0.00099832     -110.426 
         500         1.92   0.00179855   0.00111735     -110.426 
         500      2.25333   0.00111727   0.00120929     -110.426 
         500      2.61333  0.000436453   0.00126673     -110.426 
         500            3 -0.000194814   0.00128462     -110.426 
         550            0           -0           -0     -100.139 
         550     0.013333 -0.000260545 -2.47689e-07     -100.139 
         550     0.053333 -0.000633177 -3.80106e-06     -100.139 
         550         0.12 -0.000947695 -1.76219e-05     -100.139 
         550     0.213332  -0.00103681 -4.82676e-05     -100.139 
         550     0.333332 -0.000959322 -9.72769e-05     -100.139 
         550         0.48 -0.000863417 -0.000161907     -100.139 
         550     0.653331 -0.000847701 -0.000240106     -100.139 
         550     0.853332 -0.000960662 -0.000332589     -100.139 
         550         1.08  -0.00118818 -0.000438119     -100.139 
         550      1.33333   -0.0013581 -0.000546588     -100.139 
         550      1.61333  -0.00129414 -0.000643471     -100.139 
         550         1.92  -0.00110138 -0.000722682     -100.139 
         550      2.25333 -0.000878928 -0.000782418     -100.139 
         550      2.61333 -0.000647887 -0.000819362     -100.139 
         550            3 -0.000410118 -0.000830319     -100.139 
         600            0            0            0      -89.842 
         600     0.013333 -0.000291513  -1.1432e-07      -89.842 
         600     0.053333 -0.000766869 -1.97921e-06      -89.842 
         600         0.12  -0.00123465 -1.06565e-05      -89.842 
         600     0.213332  -0.00142288 -3.37935e-05      -89.842 
         600     0.333332  -0.00129126 -7.71796e-05      -89.842 
         600         0.48  -0.00101396 -0.000141018      -89.842 
         600     0.653331 -0.000795252 -0.000221344      -89.842 
         600     0.853332 -0.000728687 -0.000313353      -89.842 
         600         1.08 -0.000765366 -0.000411045      -89.842 
         600      1.33333  -0.00075888 -0.000505907      -89.842 
         600      1.61333 -0.000640861 -0.000591337      -89.842 
         600         1.92 -0.000499427 -0.000665776      -89.842 
         600      2.25333  -0.00036208 -0.000726534      -89.842 
         600      2.61333 -0.000226677 -0.000769353      -89.842 
         600            3 -9.64793e-05 -0.000790451      -89.842 
         650            0           -0           -0      -79.533 
         650     0.013333 -1.14357e-05 -1.13371e-07      -79.533 
         650     0.053333  0.000242065 -1.66774e-06      -79.533 
         650         0.12  0.000647286 -7.27381e-06      -79.533 
         650     0.213332   0.00112154 -1.84424e-05      -79.533 
         650     0.333332   0.00151655 -3.35765e-05      -79.533 
         650         0.48   0.00172593 -4.86417e-05      -79.533 
         650     0.653331   0.00175105  -6.0019e-05      -79.533 
         650     0.853332   0.00166705 -6.62313e-05      -79.533 
         650         1.08   0.00154949 -6.73117e-05      -79.533 
         650      1.33333   0.00142294 -6.43454e-05      -79.533 
         650      1.61333    0.0012529 -5.99347e-05     -79.5331 
         650         1.92    0.0010216 -5.60738e-05     -79.5331 
         650      2.25333  0.000756639 -5.22004e-05     -79.5331 
         650      2.61333  0.000477437 -4.79626e-05     -79.5331 
         650            3  0.000195893 -4.33587e-05     -79.5331 
         700            0            0            0     -69.2115 
         700     0.013333  1.14182e-06  4.63295e-07     -69.2115 
         700     0.053333  9.70597e-05  7.07249e-06     -69.2115 
         700         0.12  -0.00017703  3.27046e-05     -69.2115 
         700     0.213332 -0.000943179  8.96056e-05     -69.2115 
         700     0.333332  -0.00192183  0.000180131     -69.2115 
         700         0.48  -0.00269077  0.000295713     -69.2115 
         700     0.653331   -0.0030354  0.000425449     -69.2115 
         700     0.853332  -0.00298325  0.000563661     -69.2115 
         700         1.08  -0.00265986  0.000708219     -69.2115 
         700      1.33333  -0.00224195  0.000853528     -69.2115 
         700      1.61333  -0.00188642  0.000990045     -69.2115 
         700         1.92  -0.00157131   0.00111062     -69.2115 
         700      2.25333  -0.00122878   0.00121016     -69.2115 
         700      2.61333  -0.00085437   0.00128258     -69.2115 
         700            3 -0.000477334   0.00132188     -69.2115 
         750            0            0            0     -58.8759 
         750     0.013333 -0.000429716 -4.11457e-07     -58.8759 
         750     0.053333  -0.00117246 -6.52968e-06     -58.8759 
         750         0.12  -0.00173918 -3.18474e-05     -58.8759 
         750     0.213332  -0.00168803 -9.25821e-05     -58.8759 
         750     0.333332  -0.00108762 -0.000197519     -58.8759 
         750         0.48 -0.000367771 -0.000342948     -58.8759 
         750     0.653331  9.24205e-05 -0.000518507     -58.8759 
         750     0.853332  0.000168197 -0.000715555     -58.8759 
         750         1.08   -5.638e-05 -0.000927296     -58.8759 
         750      1.33333 -0.000339519   -0.0011425     -58.8759 
         750      1.61333  -0.00044056   -0.0013458     -58.8759 
         750         1.92 -0.000394313  -0.00152695     -58.8759 
         750      2.25333 -0.000320775  -0.00167946     -58.8759 
         750      2.61333  -0.00025702  -0.00179537     -58.8759 
         750            3 -0.000192797  -0.00186634     -58.8759 
         800            0           -0           -0     -48.5314 
         800     0.013333   0.00030601  1.44256e-07     -48.5314 
         800     0.053333   0.00129163  2.64121e-06     -48.5314 
         800         0.12   0.00231537  1.51351e-05     -48.5314 
         800     0.213332   0.00284444  5.07533e-05     -48.5314 
         800     0.333332   0.00271993  0.000121362     -48.5314 
         800         0.48   0.00222475  0.000229474     -48.5314 
         800     0.653331   0.00176275  0.000368022     -48.5314 
         800     0.853332   0.00154653  0.000526611     -48.5314 
         800         1.08   0.00153036   0.00069476     -48.5314 
         800      1.33333   0.00150344  0.000860797     -48.5314 
         800      1.61333   0.00130131   0.00101406     -48.5314 
         800         1.92   0.00100569   0.00114952     -48.5314 
         800      2.25333  0.000697236   0.00126454     -48.5315 
         800      2.61333  0.000397931   0.00135347     -48.5315 
         800            3  0.000108875   0.00140984     -48.5315 
         850            0 -2.56987e-19  2.92916e-26     -38.1851 
         850     0.013333 -0.000537838  4.48719e-07     -38.1851 
         850     0.053333  -0.00183854   6.2579e-06     -38.1851 
         850         0.12  -0.00377162  2.50162e-05     -38.1851 
         850     0.213332   -0.0057597   5.6121e-05     -38.1851 
         850     0.333332  -0.00715732  8.68513e-05     -38.1851 
         850         0.48  -0.00770499  0.000101286     -38.1851 
         850     0.653331  -0.00762544  9.23774e-05     -38.1851 
         850     0.853332  -0.00727017  6.52055e-05     -38.1851 
         850         1.08  -0.00678137  3.19156e-05     -38.1851 
         850      1.33333  -0.00611017  3.26532e-06     -38.1851 
         850      1.61333  -0.00526207 -1.76597e-05     -38.1851 
         850         1.92  -0.00435805 -3.57841e-05     -38.1851 
         850      2.25333  -0.00341978 -5.31969e-05      -38.185 
         850      2.61333  -0.00243746 -6.99702e-05      -38.185 
         850            3  -0.00142735 -8.51443e-05     -38.1849 
         900            0           -0           -0     -27.8271 
         900     0.013333 -0.000433731 -5.78938e-07     -27.8271 
         900     0.053333  -0.00113497 -8.99219e-06     -27.8271 
         900         0.12  -0.00152342 -4.26871e-05     -27.8271 
         900     0.213332  -0.00113955 -0.000120963     -27.8271 
         900     0.333332 -0.000140703  -0.00025278     -27.8271 
         900         0.48  0.000922322 -0.000432165     -27.8271 
         900     0.653331   0.00160237 -0.000646267     -27.8271 
         900     0.853332   0.00176416 -0.000885876     -27.8271 
         900         1.08   0.00148063  -0.00114642     -27.8271 
         900      1.33333  0.000979334  -0.00141931     -27.8271 
         900      1.61333   0.00057702  -0.00168769     -27.8271 
         900         1.92  0.000388913  -0.00193568     -27.8271 
         900      2.25333  0.000273026  -0.00215293     -27.8271 
         900      2.61333  0.000147149  -0.00233035     -27.8271 
         900            3  1.40245e-05  -0.00245767     -27.8272 
         950            0            0            0     -17.4556 
         950     0.013333  0.000307616 -7.40671e-09     -17.4556 
         950     0.053333   0.00135058   3.7767e-07     -17.4556 
         950         0.12   0.00257126  4.98941e-06     -17.4556 
         950     0.213332   0.00343609  2.38675e-05     -17.4556 
         950     0.333332   0.00367464  6.88941e-05     -17.4556 
         950         0.48    0.0034517  0.000145176     -17.4556 
         950     0.653331   0.00314031  0.000248099     -17.4556 
         950     0.853332   0.00298563  0.000367713     -17.4556 
         950         1.08   0.00296157  0.000492477     -17.4556 
         950      1.33333   0.00284556  0.000609865     -17.4556 
         950      1.61333   0.00247706  0.000710291     -17.4556 
         950         1.92   0.00197715  0.000794342     -17.4556 
         950      2.25333    0.0014847  0.000864203     -17.4556 
         950      2.61333   0.00101517  0.000918741     -17.4556 
         950            3  0.000536873  0.000954041     -17.4557 
        1000            0 -2.35992e-19 -4.01675e-24     -7.07055 
        1000     0.013333 -0.000478941  4.92141e-07     -7.07055 
        1000     0.053333   -0.0016429  7.14383e-06     -7.07055 
        1000         0.12  -0.00346113  2.98124e-05     -7.07055 
        1000     0.213332  -0.00543025  7.11375e-05     -7.07055 
        1000     0.333332  -0.00688921  0.000120582     -7.07055 
        1000         0.48  -0.00750123  0.000161859     -7.07055 
        1000     0.653331  -0.00743354  0.000186028     -7.07056 
        1000     0.853332  -0.00703559  0.000196827     -7.07056 
        1000         1.08  -0.00647381  0.000205963     -7.07056 
        1000      1.33333  -0.00573472  0.000223203     -7.07056 
        1000      1.61333   -0.0048784  0.000248337     -7.07056 
        1000         1.92  -0.00407178  0.000272446     -7.07055 
        1000      2.25333  -0.00329483   0.00029096     -7.07053 
        1000      2.61333  -0.00249221  0.000302995      -7.0705 
        1000            3  -0.00164989  0.000308914     -7.07045 
