Variables = x, y, u, v, p

Zone, I=416, F=POINT
         -50            0            0            0     -29.7609 
         -50     0.013333  1.02225e-05 -1.22935e-08     -29.7609 
         -50     0.053333  3.77852e-06 -1.38855e-07     -29.7609 
         -50         0.12  8.01993e-06 -6.11239e-07     -29.7609 
         -50     0.213332  1.48391e-05 -1.53011e-06     -29.7608 
         -50     0.333332  2.16525e-05 -2.63706e-06     -29.7608 
         -50         0.48  2.52875e-05 -4.64893e-06     -29.7608 
         -50     0.653331   2.4275e-05 -5.87635e-06     -29.7608 
         -50     0.853332  1.94205e-05 -7.17678e-06     -29.7607 
         -50         1.08  1.31999e-05 -8.84638e-06     -29.7606 
         -50      1.33333  5.69394e-06 -1.02006e-05     -29.7605 
         -50      1.61333  4.49713e-08 -1.04808e-05     -29.7604 
         -50         1.92 -4.04236e-06 -1.03344e-05     -29.7601 
         -50      2.25333 -3.63323e-06 -9.42239e-06     -29.7599 
         -50      2.61333 -7.22493e-06 -1.28275e-05     -29.7595 
         -50            3 -1.82149e-05 -2.23438e-05     -29.7591 
         -25            0  1.27441e-20 -5.68535e-25     -28.9164 
         -25     0.013333  1.02914e-05  4.91415e-09     -28.9164 
         -25     0.053333  5.90669e-06  8.26067e-08     -28.9164 
         -25         0.12   4.2304e-06  3.68873e-07     -28.9164 
         -25     0.213332 -4.10019e-07  9.45788e-07     -28.9164 
         -25     0.333332 -3.71334e-06  1.73355e-06     -28.9164 
         -25         0.48 -4.44924e-06  2.67197e-06     -28.9164 
         -25     0.653331 -3.19309e-06  3.61908e-06     -28.9164 
         -25     0.853332 -1.73649e-06  4.49625e-06     -28.9164 
         -25         1.08 -1.40934e-06  5.23987e-06     -28.9163 
         -25      1.33333 -2.09931e-06  5.59603e-06     -28.9163 
         -25      1.61333 -4.87343e-06  5.60101e-06     -28.9163 
         -25         1.92 -1.10155e-05   5.2311e-06     -28.9162 
         -25      2.25333 -1.27052e-05  4.84451e-06     -28.9161 
         -25      2.61333 -9.89081e-06  3.68979e-06      -28.916 
         -25            3 -7.74424e-06  1.70191e-06     -28.9159 
           0            0            0            0     -28.1236 
           0     0.013333  6.04478e-05 -2.53055e-05     -28.1244 
           0     0.053333  8.52454e-07  -9.8188e-06     -28.1258 
           0         0.12 -8.51987e-06 -1.23344e-06     -28.1274 
           0     0.213332 -9.00714e-06 -8.43417e-07     -28.1289 
           0     0.333332  -3.7128e-06 -2.04446e-06     -28.1305 
           0         0.48  2.92431e-07 -3.42107e-06      -28.132 
           0     0.653331  9.14546e-07 -5.38607e-06     -28.1335 
           0     0.853332  -3.2109e-07 -7.64543e-06     -28.1349 
           0         1.08 -2.54345e-07 -9.82531e-06     -28.1363 
           0      1.33333  7.28816e-07 -1.17756e-05     -28.1376 
           0      1.61333   1.1907e-06 -1.32169e-05     -28.1388 
           0         1.92  1.79662e-06 -1.36482e-05       -28.14 
           0      2.25333  1.55551e-06 -1.33357e-05     -28.1412 
           0      2.61333  1.49175e-06 -1.22513e-05     -28.1422 
           0            3  4.23389e-06 -1.14873e-05     -28.1432 
          20            0 -6.65543e-05  4.34764e-05     -27.5805 
          20     0.013333  -6.3906e-05  4.35732e-05     -27.5805 
          20     0.053333 -5.63399e-05  4.37239e-05     -27.5805 
          20         0.12 -4.56049e-05  4.34805e-05     -27.5805 
          20     0.213332 -3.59887e-05  4.21059e-05     -27.5805 
          20     0.333332 -3.20543e-05  3.86415e-05     -27.5804 
          20         0.48 -3.00421e-05  3.29937e-05     -27.5804 
          20     0.653331 -2.45824e-05  2.55838e-05     -27.5804 
          20     0.853332 -1.18827e-05  1.72178e-05     -27.5804 
          20         1.08   7.4749e-06  8.48351e-06     -27.5804 
          20      1.33333  2.83613e-05  -2.8097e-07     -27.5804 
          20      1.61333  4.55368e-05 -8.34969e-06     -27.5803 
          20         1.92  5.68287e-05 -1.47101e-05     -27.5803 
          20      2.25333  6.09521e-05 -1.99322e-05     -27.5802 
          20      2.61333  5.82435e-05 -2.40038e-05     -27.5802 
          20            3   5.1581e-05 -2.69554e-05     -27.5801 
          40            0           -0           -0     -27.0127 
          40     0.013333 -0.000100363 -7.15889e-08     -27.0127 
          40     0.053333 -0.000346934 -1.39429e-06     -27.0127 
          40         0.12 -0.000538095 -8.28959e-06     -27.0127 
          40     0.213332 -0.000588615  -2.7676e-05     -27.0127 
          40     0.333332 -0.000578219 -6.43771e-05     -27.0127 
          40         0.48 -0.000562281 -0.000114853     -27.0127 
          40     0.653331 -0.000466614 -0.000168137     -27.0127 
          40     0.853332 -0.000362526 -0.000223741     -27.0127 
          40         1.08  -0.00030251  -0.00028186     -27.0126 
          40      1.33333 -0.000209081 -0.000330911     -27.0126 
          40      1.61333 -9.46742e-05  -0.00036323     -27.0125 
          40         1.92  1.20958e-05 -0.000375989     -27.0124 
          40      2.25333  9.70514e-05 -0.000369016     -27.0122 
          40      2.61333  0.000146124 -0.000346029     -27.0121 
          40            3  0.000160312  -0.00031309     -27.0119 
          60            0           -0           -0     -26.4292 
          60     0.013333  8.20166e-05 -1.99132e-07     -26.4292 
          60     0.053333  0.000289313 -2.57412e-06     -26.4292 
          60         0.12   0.00055297  -8.8012e-06     -26.4292 
          60     0.213332  0.000691369 -1.48476e-05     -26.4292 
          60     0.333332  0.000626568 -1.33913e-05     -26.4292 
          60         0.48  0.000460166 -2.63409e-06     -26.4292 
          60     0.653331  0.000290651  1.04296e-05     -26.4292 
          60     0.853332   0.00011304  1.72324e-05     -26.4292 
          60         1.08 -3.03582e-05  1.98589e-05     -26.4292 
          60      1.33333 -9.72075e-05  2.50839e-05     -26.4292 
          60      1.61333 -0.000128739  3.40041e-05     -26.4292 
          60         1.92 -0.000154702  4.44561e-05     -26.4292 
          60      2.25333 -0.000165131  5.46607e-05     -26.4292 
          60      2.61333 -0.000154814  6.38372e-05     -26.4292 
          60            3 -0.000127914  7.10596e-05     -26.4292 
          80            0   1.1119e-19  -8.3649e-26     -25.8539 
          80     0.013333   0.00028664 -1.29348e-07     -25.8539 
          80     0.053333  0.000990114 -1.06415e-06     -25.8539 
          80         0.12   0.00176036  6.07775e-07     -25.8539 
          80     0.213332   0.00218979  1.67682e-05     -25.8539 
          80     0.333332   0.00220442  5.94947e-05     -25.8539 
          80         0.48   0.00206616  0.000130025     -25.8539 
          80     0.653331    0.0019883   0.00021681     -25.8539 
          80     0.853332   0.00183619  0.000297165     -25.8539 
          80         1.08    0.0014019  0.000352635     -25.8539 
          80      1.33333  0.000898277  0.000386785     -25.8539 
          80      1.61333  0.000496865  0.000411835     -25.8539 
          80         1.92  0.000101981  0.000422543     -25.8539 
          80      2.25333 -0.000215803  0.000415954      -25.854 
          80      2.61333 -0.000425243  0.000395861      -25.854 
          80            3 -0.000541721  0.000364993     -25.8541 
         100            0            0            0     -25.2821 
         100     0.013333  0.000233246 -1.16144e-07     -25.2821 
         100     0.053333  0.000804726 -1.07174e-06     -25.2821 
         100         0.12   0.00144795 -7.68233e-07     -25.2821 
         100     0.213332   0.00184564  9.13259e-06     -25.2821 
         100     0.333332   0.00192593  3.72839e-05     -25.2821 
         100         0.48   0.00185684  8.48301e-05     -25.2821 
         100     0.653331   0.00177315  0.000144232     -25.2821 
         100     0.853332   0.00158056  0.000200497     -25.2821 
         100         1.08   0.00116531  0.000241126     -25.2821 
         100      1.33333  0.000746977  0.000269181     -25.2821 
         100      1.61333  0.000446672  0.000292643     -25.2821 
         100         1.92  0.000116083  0.000304034     -25.2821 
         100      2.25333 -0.000168442  0.000300173     -25.2821 
         100      2.61333 -0.000362665  0.000284453     -25.2822 
         100            3 -0.000476587  0.000259477     -25.2822 
         150            0            0            0     -23.8604 
         150     0.013333  0.000185231   3.4946e-08     -23.8604 
         150     0.053333  0.000610624  8.70479e-07     -23.8604 
         150         0.12    0.0010419  6.14785e-06     -23.8604 
         150     0.213332   0.00123568  2.30519e-05     -23.8604 
         150     0.333332   0.00115837  5.80432e-05     -23.8604 
         150         0.48  0.000963531  0.000112012     -23.8604 
         150     0.653331  0.000806198  0.000180728     -23.8604 
         150     0.853332  0.000719147  0.000257597     -23.8604 
         150         1.08  0.000636095  0.000335138     -23.8604 
         150      1.33333  0.000501016  0.000405894     -23.8604 
         150      1.61333  0.000324162  0.000464743     -23.8604 
         150         1.92  0.000141239  0.000505456     -23.8604 
         150      2.25333 -1.66256e-05  0.000524634     -23.8604 
         150      2.61333 -0.000135373  0.000522637     -23.8604 
         150            3 -0.000216913  0.000501441     -23.8604 
         200            0           -0           -0     -22.4472 
         200     0.013333  0.000353696  3.22572e-07     -22.4472 
         200     0.053333   0.00112499  5.48665e-06     -22.4472 
         200         0.12   0.00175015  2.86226e-05     -22.4472 
         200     0.213332   0.00181662  8.69089e-05     -22.4472 
         200     0.333332   0.00143547  0.000189118     -22.4472 
         200         0.48    0.0010141  0.000330232     -22.4472 
         200     0.653331   0.00083048  0.000498598     -22.4472 
         200     0.853332  0.000863498  0.000680286     -22.4472 
         200         1.08   0.00087227  0.000857106     -22.4472 
         200      1.33333  0.000708491   0.00101222     -22.4472 
         200      1.61333  0.000469492   0.00113806     -22.4472 
         200         1.92  0.000240232   0.00122399     -22.4472 
         200      2.25333  2.83174e-05   0.00126166     -22.4473 
         200      2.61333 -0.000146054   0.00125061     -22.4473 
         200            3 -0.000270172   0.00119503     -22.4473 
         250            0   4.8951e-20 -2.61724e-26     -21.0445 
         250     0.013333  0.000108783  1.95064e-07     -21.0445 
         250     0.053333  0.000315383  2.96703e-06     -21.0445 
         250         0.12  0.000463407  1.35444e-05     -21.0445 
         250     0.213332  0.000466052  3.63818e-05     -21.0445 
         250     0.333332  0.000386383  7.19984e-05     -21.0445 
         250         0.48  0.000322461  0.000118386     -21.0445 
         250     0.653331  0.000332416  0.000174438     -21.0445 
         250     0.853332  0.000429739  0.000239579     -21.0445 
         250         1.08  0.000543116  0.000308966     -21.0445 
         250      1.33333  0.000549239  0.000372923     -21.0445 
         250      1.61333   0.00045361  0.000424747     -21.0445 
         250         1.92  0.000340656  0.000461462     -21.0445 
         250      2.25333  0.000221994  0.000480405     -21.0445 
         250      2.61333  0.000105701  0.000480624     -21.0445 
         250            3  4.55365e-06    0.0004632     -21.0444 
         300            0 -5.52672e-20  -5.3281e-26     -19.6521 
         300     0.013333 -9.76493e-05 -3.37808e-08     -19.6521 
         300     0.053333 -0.000358103 -7.24579e-07     -19.6521 
         300         0.12 -0.000608526 -4.61503e-06     -19.6521 
         300     0.213332 -0.000717246 -1.61043e-05     -19.6521 
         300     0.333332 -0.000677574 -3.83726e-05     -19.6521 
         300         0.48 -0.000593124  -7.0866e-05     -19.6521 
         300     0.653331 -0.000552716  -0.00011037     -19.6521 
         300     0.853332 -0.000555514   -0.0001525     -19.6521 
         300         1.08 -0.000527314 -0.000191924     -19.6521 
         300      1.33333  -0.00042927 -0.000224886     -19.6521 
         300      1.61333 -0.000309687 -0.000251497     -19.6521 
         300         1.92 -0.000193576 -0.000271076     -19.6521 
         300      2.25333 -8.20314e-05 -0.000281545     -19.6521 
         300      2.61333  1.75075e-05 -0.000282212     -19.6521 
         300            3  9.60931e-05 -0.000273187     -19.6521 
         350            0            0            0     -18.2705 
         350     0.013333 -2.50803e-05 -1.55245e-07     -18.2705 
         350     0.053333  -7.4079e-05 -2.35062e-06     -18.2705 
         350         0.12  -2.9744e-05 -1.06367e-05     -18.2705 
         350     0.213332  0.000117352 -2.80731e-05     -18.2705 
         350     0.333332  0.000276866  -5.3892e-05     -18.2705 
         350         0.48  0.000357179 -8.49597e-05     -18.2705 
         350     0.653331  0.000333881 -0.000119508     -18.2705 
         350     0.853332  0.000226203 -0.000157256     -18.2705 
         350         1.08  9.96244e-05  -0.00019551     -18.2705 
         350      1.33333  3.68991e-05 -0.000228998     -18.2705 
         350      1.61333  2.58106e-05 -0.000255135     -18.2705 
         350         1.92  8.52287e-06 -0.000273828     -18.2705 
         350      2.25333 -1.08957e-05 -0.000283742     -18.2705 
         350      2.61333 -2.66706e-05 -0.000284037     -18.2705 
         350            3   -3.881e-05 -0.000274778     -18.2705 
         400            0           -0           -0     -16.8988 
         400     0.013333  0.000161521 -4.13948e-07     -16.8988 
         400     0.053333  0.000655042  -5.8333e-06     -16.8988 
         400         0.12   0.00146795 -2.37093e-05     -16.8988 
         400     0.213332   0.00232451 -5.47521e-05     -16.8988 
         400     0.333332   0.00288646 -9.00539e-05     -16.8988 
         400         0.48   0.00305475 -0.000119967     -16.8988 
         400     0.653331   0.00295511 -0.000143677     -16.8988 
         400     0.853332   0.00267974 -0.000168599     -16.8988 
         400         1.08   0.00224604 -0.000200446     -16.8988 
         400      1.33333   0.00177272 -0.000234455     -16.8988 
         400      1.61333   0.00136823 -0.000261699     -16.8988 
         400         1.92  0.000954631  -0.00028016     -16.8988 
         400      2.25333  0.000528666 -0.000289762     -16.8988 
         400      2.61333  0.000118729 -0.000289739     -16.8988 
         400            3 -0.000241857 -0.000279938     -16.8989 
         450            0           -0           -0     -15.5357 
         450     0.013333  0.000177598 -5.10439e-07     -15.5357 
         450     0.053333   0.00073816 -7.24474e-06     -15.5357 
         450         0.12   0.00168439 -2.97586e-05     -15.5357 
         450     0.213332   0.00268889 -6.95601e-05     -15.5357 
         450     0.333332   0.00331669 -0.000115705     -15.5357 
         450         0.48   0.00342526 -0.000155302     -15.5357 
         450     0.653331   0.00318492 -0.000186135     -15.5357 
         450     0.853332   0.00275206 -0.000216756     -15.5357 
         450         1.08   0.00217357 -0.000254595     -15.5357 
         450      1.33333   0.00160095 -0.000294038     -15.5357 
         450      1.61333   0.00118387 -0.000323018     -15.5358 
         450         1.92  0.000799336 -0.000339012     -15.5358 
         450      2.25333  0.000403146 -0.000343484     -15.5358 
         450      2.61333  1.87265e-05 -0.000336297     -15.5358 
         450            3 -0.000316879 -0.000317406     -15.5359 
         500            0           -0           -0     -14.1804 
         500     0.013333 -0.000493168 -2.29997e-07     -14.1804 
         500     0.053333  -0.00171781 -4.10552e-06     -14.1804 
         500         0.12  -0.00296387 -2.27458e-05     -14.1804 
         500     0.213332  -0.00360318 -7.35352e-05     -14.1804 
         500     0.333332  -0.00351912 -0.000169925     -14.1804 
         500         0.48   -0.0030849  -0.00031286     -14.1804 
         500     0.653331  -0.00273537 -0.000493853     -14.1804 
         500     0.853332   -0.0026557 -0.000701758     -14.1804 
         500         1.08   -0.0027114 -0.000921517     -14.1804 
         500      1.33333  -0.00257909  -0.00113228     -14.1804 
         500      1.61333  -0.00214873  -0.00131801     -14.1804 
         500         1.92  -0.00163323  -0.00147353     -14.1804 
         500      2.25333  -0.00110234  -0.00159147     -14.1804 
         500      2.61333 -0.000570454  -0.00166324     -14.1803 
         500            3 -6.80807e-05  -0.00168258     -14.1803 
         550            0           -0           -0     -12.8265 
         550     0.013333   0.00012334  1.28222e-07     -12.8265 
         550     0.053333  0.000383046  2.00023e-06     -12.8265 
         550         0.12  0.000621785  9.52015e-06     -12.8265 
         550     0.213332  0.000709293  2.69738e-05     -12.8265 
         550     0.333332  0.000657043  5.63966e-05     -12.8265 
         550         0.48  0.000558074   9.6974e-05     -12.8265 
         550     0.653331  0.000493582  0.000146909     -12.8265 
         550     0.853332  0.000499927  0.000205031     -12.8265 
         550         1.08  0.000570063  0.000269905     -12.8265 
         550      1.33333  0.000634888  0.000337226     -12.8265 
         550      1.61333   0.00061015  0.000400029     -12.8265 
         550         1.92  0.000515699  0.000453469     -12.8265 
         550      2.25333  0.000399367  0.000494961     -12.8265 
         550      2.61333  0.000276728  0.000522087     -12.8265 
         550            3  0.000150119  0.000532801     -12.8265 
         600            0            0            0     -11.4785 
         600     0.013333  8.56055e-07 -9.31466e-09     -11.4785 
         600     0.053333 -2.07217e-05 -1.41983e-07     -11.4785 
         600         0.12 -3.56553e-05 -6.57004e-07     -11.4785 
         600     0.213332 -4.22533e-05 -1.80815e-06     -11.4785 
         600     0.333332 -4.06693e-05 -3.68415e-06     -11.4785 
         600         0.48 -3.70194e-05 -6.20702e-06     -11.4785 
         600     0.653331 -3.53377e-05 -9.26532e-06     -11.4785 
         600     0.853332 -3.70394e-05  -1.2814e-05     -11.4785 
         600         1.08 -4.19497e-05 -1.68098e-05     -11.4785 
         600      1.33333 -4.69664e-05 -2.10689e-05     -11.4785 
         600      1.61333 -4.64884e-05 -2.51448e-05     -11.4785 
         600         1.92  -3.9369e-05 -2.86067e-05     -11.4785 
         600      2.25333  -2.9592e-05 -3.12742e-05     -11.4785 
         600      2.61333 -1.95188e-05 -3.29869e-05     -11.4785 
         600            3 -9.63702e-06 -3.36429e-05     -11.4785 
         650            0           -0           -0     -10.1357 
         650     0.013333  8.64198e-06  1.82197e-09     -10.1357 
         650     0.053333  4.44612e-06  2.76659e-08     -10.1357 
         650         0.12  3.98624e-06  1.25191e-07     -10.1357 
         650     0.213332  1.29382e-06  3.35922e-07     -10.1357 
         650     0.333332 -1.59644e-06  6.65476e-07     -10.1357 
         650         0.48 -3.99889e-06  1.08709e-06     -10.1357 
         650     0.653331 -5.30575e-06  1.57394e-06     -10.1357 
         650     0.853332 -5.41462e-06  2.11329e-06     -10.1357 
         650         1.08 -4.36175e-06  2.71448e-06     -10.1357 
         650      1.33333 -2.51803e-06  3.36816e-06     -10.1357 
         650      1.61333 -6.05878e-07  4.01995e-06     -10.1357 
         650         1.92  1.03693e-06  4.56498e-06     -10.1357 
         650      2.25333  2.90808e-06  5.06229e-06     -10.1357 
         650      2.61333  4.95561e-06  5.45474e-06     -10.1357 
         650            3  6.74988e-06  5.64536e-06     -10.1357 
         700            0            0            0     -8.79892 
         700     0.013333  7.85783e-06 -4.06195e-10     -8.79892 
         700     0.053333  2.34837e-06 -5.96979e-09     -8.79892 
         700         0.12  1.84301e-06 -2.78556e-08     -8.79892 
         700     0.213332  1.17856e-06 -7.76055e-08     -8.79892 
         700     0.333332  1.44883e-06 -1.60143e-07     -8.79892 
         700         0.48  1.78993e-06 -2.72923e-07     -8.79892 
         700     0.653331  1.95552e-06 -4.09755e-07     -8.79892 
         700     0.853332  1.89481e-06  -5.7037e-07     -8.79892 
         700         1.08   1.6529e-06 -7.47378e-07     -8.79892 
         700      1.33333  1.39141e-06  -9.3716e-07     -8.79892 
         700      1.61333  1.44416e-06 -1.11328e-06     -8.79892 
         700         1.92  2.02649e-06 -1.30443e-06     -8.79892 
         700      2.25333  3.01787e-06 -1.39602e-06     -8.79891 
         700      2.61333  4.42973e-06 -1.49239e-06     -8.79891 
         700            3   6.1108e-06 -1.65733e-06     -8.79891 
         750            0            0            0      -7.4674 
         750     0.013333  8.17316e-06  3.41478e-11      -7.4674 
         750     0.053333  3.42427e-06  6.23625e-10      -7.4674 
         750         0.12  3.58837e-06  2.42404e-09      -7.4674 
         750     0.213332  3.13852e-06  6.11723e-09      -7.4674 
         750     0.333332   3.2036e-06   1.2479e-08      -7.4674 
         750         0.48   3.2036e-06   2.1346e-08      -7.4674 
         750     0.653331  3.12975e-06  3.59881e-08      -7.4674 
         750     0.853332  3.03968e-06  4.03618e-08      -7.4674 
         750         1.08  2.95118e-06  6.20727e-08      -7.4674 
         750      1.33333  2.89168e-06  8.35452e-08      -7.4674 
         750      1.61333  2.87559e-06  1.40588e-07      -7.4674 
         750         1.92  3.04767e-06  7.98487e-08     -7.46739 
         750      2.25333  3.46625e-06  1.41682e-07     -7.46739 
         750      2.61333  4.24613e-06  1.96931e-07     -7.46739 
         750            3  5.50177e-06  1.19612e-07     -7.46739 
         800            0           -0           -0     -6.14014 
         800     0.013333  8.12838e-06 -5.39322e-11     -6.14014 
         800     0.053333   3.2943e-06 -5.48272e-10     -6.14014 
         800         0.12  3.37154e-06 -1.92734e-09     -6.14014 
         800     0.213332  2.86452e-06 -3.99595e-09     -6.14014 
         800     0.333332  2.91204e-06 -6.85578e-09     -6.14014 
         800         0.48  2.92124e-06 -1.06277e-08     -6.14014 
         800     0.653331  2.86355e-06 -1.65871e-08     -6.14014 
         800     0.853332  2.76719e-06 -2.55875e-08     -6.14014 
         800         1.08  2.67229e-06 -4.80341e-08     -6.14014 
         800      1.33333  2.57347e-06 -6.73661e-08     -6.14014 
         800      1.61333  2.48806e-06 -1.20475e-07     -6.14013 
         800         1.92  2.44501e-06 -1.56287e-08     -6.14013 
         800      2.25333   2.6019e-06  -3.7975e-08     -6.14013 
         800      2.61333  3.14965e-06 -6.63594e-08     -6.14013 
         800            3  4.12311e-06  2.80049e-09     -6.14013 
         850            0   1.0798e-20 -1.45042e-26     -4.81657 
         850     0.013333  8.13983e-06 -1.98919e-11     -4.81657 
         850     0.053333  3.31977e-06  6.95105e-11     -4.81657 
         850         0.12  3.40052e-06  7.21257e-10     -4.81657 
         850     0.213332  2.89202e-06  2.07244e-09     -4.81657 
         850     0.333332   2.9427e-06  3.81605e-09     -4.81657 
         850         0.48  2.95544e-06  5.87555e-09     -4.81657 
         850     0.653331  2.90542e-06  8.47562e-09     -4.81657 
         850     0.853332  2.82352e-06   1.0336e-08     -4.81657 
         850         1.08  2.74034e-06   1.0923e-08     -4.81657 
         850      1.33333  2.66119e-06  1.13017e-08     -4.81657 
         850      1.61333   2.5185e-06  1.87813e-08     -4.81656 
         850         1.92  2.38625e-06  4.94317e-08     -4.81656 
         850      2.25333  2.27885e-06  4.21648e-08     -4.81656 
         850      2.61333  2.39557e-06  3.00971e-08     -4.81656 
         850            3   3.0259e-06  7.00373e-08     -4.81656 
         900            0           -0           -0      -3.4976 
         900     0.013333  8.12716e-06 -4.03331e-11      -3.4976 
         900     0.053333  3.29823e-06 -1.75434e-10      -3.4976 
         900         0.12  3.37635e-06 -5.39064e-10      -3.4976 
         900     0.213332  2.86718e-06 -9.08337e-10      -3.4976 
         900     0.333332  2.91384e-06 -1.22805e-09      -3.4976 
         900         0.48  2.92546e-06 -1.69587e-09      -3.4976 
         900     0.653331  2.87802e-06 -4.28847e-09      -3.4976 
         900     0.853332   2.8054e-06 -4.26821e-09      -3.4976 
         900         1.08   2.7401e-06  -9.1708e-09      -3.4976 
         900      1.33333  2.65823e-06 -5.07609e-09      -3.4976 
         900      1.61333  2.53226e-06  6.23495e-09      -3.4976 
         900         1.92  2.35491e-06 -1.53654e-08      -3.4976 
         900      2.25333  2.14724e-06 -3.27645e-08     -3.49759 
         900      2.61333  1.84913e-06 -5.52225e-08     -3.49759 
         900            3  1.70718e-06 -7.95165e-08     -3.49759 
         950            0            0            0     -2.18627 
         950     0.013333  8.10365e-06 -2.98519e-11     -2.18627 
         950     0.053333   3.2816e-06  4.61825e-11     -2.18627 
         950         0.12  3.35955e-06  3.34662e-10     -2.18627 
         950     0.213332  2.85123e-06  8.11206e-10     -2.18627 
         950     0.333332  2.89803e-06  1.58775e-09     -2.18627 
         950         0.48  2.90946e-06  2.59906e-09     -2.18627 
         950     0.653331  2.87123e-06 -2.43299e-09     -2.18627 
         950     0.853332  2.80021e-06   7.4107e-09     -2.18627 
         950         1.08  2.77328e-06 -7.45246e-09     -2.18627 
         950      1.33333  2.72472e-06 -3.22325e-08     -2.18626 
         950      1.61333   2.6047e-06  1.70324e-08     -2.18626 
         950         1.92  2.48898e-06 -3.30402e-08     -2.18626 
         950      2.25333  2.25193e-06  2.81965e-08     -2.18626 
         950      2.61333  2.04012e-06  4.83695e-08     -2.18626 
         950            3  1.71144e-06 -2.13127e-08     -2.18625 
        1000            0  1.07387e-20 -1.38285e-26    -0.883225 
        1000     0.013333  8.08283e-06  4.29896e-12    -0.883225 
        1000     0.053333  3.25016e-06  2.83201e-10    -0.883225 
        1000         0.12  3.32038e-06  1.06816e-09    -0.883225 
        1000     0.213332  2.80993e-06   2.2713e-09    -0.883225 
        1000     0.333332  2.85695e-06  4.00738e-09    -0.883225 
        1000         0.48  2.86928e-06  6.23492e-09    -0.883224 
        1000     0.653331  2.82334e-06  1.05325e-08    -0.883224 
        1000     0.853332  2.76308e-06  1.18838e-08    -0.883224 
        1000         1.08  2.71323e-06  2.23651e-08    -0.883224 
        1000      1.33333  2.67238e-06  3.79413e-08    -0.883223 
        1000      1.61333  2.61657e-06  4.16155e-08    -0.883222 
        1000         1.92  2.55638e-06   5.7258e-08    -0.883221 
        1000      2.25333  2.51128e-06  5.03889e-08     -0.88322 
        1000      2.61333  2.29068e-06    4.274e-08    -0.883218 
        1000            3  1.84304e-06  5.96312e-08    -0.883216 
