Variables = x, y, u, v, p

Zone, I=416, F=POINT
         -50            0            0            0      50.5365 
         -50     0.013333  0.000225845  4.82017e-08      50.5365 
         -50     0.053333  0.000227719  1.42816e-07      50.5365 
         -50         0.12  0.000241333  3.55172e-07      50.5365 
         -50     0.213332   0.00025622  9.78653e-07      50.5365 
         -50     0.333332  0.000264468  2.25512e-06      50.5364 
         -50         0.48  0.000268926  4.14514e-06      50.5363 
         -50     0.653331    0.0002708  6.81283e-06      50.5361 
         -50     0.853332   0.00026625   9.0297e-06      50.5359 
         -50         1.08  0.000254685  1.14073e-05      50.5355 
         -50      1.33333  0.000239818  1.32878e-05       50.535 
         -50      1.61333  0.000221577  1.48072e-05      50.5343 
         -50         1.92  0.000197262  1.59709e-05      50.5335 
         -50      2.25333  0.000173315  1.50934e-05      50.5323 
         -50      2.61333   0.00016276  1.59362e-05      50.5309 
         -50            3  0.000169088  2.26372e-05      50.5291 
         -25            0           -0           -0       48.518 
         -25     0.013333  0.000154476  2.91886e-08       48.518 
         -25     0.053333  0.000127076  1.89405e-07       48.518 
         -25         0.12   0.00010168  5.52801e-07      48.5179 
         -25     0.213332  8.60124e-05  9.52097e-07      48.5179 
         -25     0.333332    7.972e-05  1.09177e-06      48.5179 
         -25         0.48  7.93062e-05   8.6565e-07      48.5179 
         -25     0.653331  8.27453e-05  4.64431e-07      48.5178 
         -25     0.853332  9.16327e-05  2.51287e-07      48.5177 
         -25         1.08  0.000105058  3.50164e-07      48.5176 
         -25      1.33333  0.000119769  5.51154e-07      48.5174 
         -25      1.61333  0.000134894   8.4885e-07      48.5171 
         -25         1.92  0.000149325  1.43673e-06      48.5168 
         -25      2.25333  0.000157865  9.51735e-07      48.5164 
         -25      2.61333  0.000157537 -4.16956e-07      48.5158 
         -25            3  0.000152306 -6.03459e-07      48.5152 
           0            0            0            0      46.8622 
           0     0.013333  0.000423015 -0.000250441       46.864 
           0     0.053333  0.000242565 -0.000133535      46.8669 
           0         0.12  0.000170117 -8.75967e-05      46.8702 
           0     0.213332  0.000140167 -6.67421e-05      46.8737 
           0     0.333332  0.000125961 -5.41522e-05      46.8772 
           0         0.48   0.00011659 -4.55977e-05      46.8808 
           0     0.653331   0.00010924 -3.98861e-05      46.8843 
           0     0.853332  0.000103891  -3.6071e-05      46.8877 
           0         1.08  0.000102792 -3.33876e-05       46.891 
           0      1.33333  0.000105153 -3.13087e-05      46.8942 
           0      1.61333  0.000107946  -2.9493e-05      46.8972 
           0         1.92  0.000109848 -2.76457e-05      46.9001 
           0      2.25333  0.000114449 -2.53192e-05      46.9028 
           0      2.61333  0.000123973 -2.19542e-05      46.9053 
           0            3   0.00013295 -1.94274e-05      46.9076 
          20            0            0            0      45.9209 
          20     0.013333   0.00112826  0.000795307      45.9192 
          20     0.053333   0.00119525  0.000850046      45.9166 
          20         0.12  0.000888501  0.000641193      45.9135 
          20     0.213332  0.000574678  0.000467142      45.9103 
          20     0.333332  0.000336174  0.000356439      45.9069 
          20         0.48  0.000173672  0.000289605      45.9036 
          20     0.653331  9.10951e-05   0.00025385      45.9002 
          20     0.853332  6.34469e-05   0.00023788      45.8969 
          20         1.08  5.23079e-05   0.00023148      45.8937 
          20      1.33333  4.27624e-05  0.000227842      45.8906 
          20      1.61333  3.65313e-05   0.00022285      45.8875 
          20         1.92  3.50654e-05  0.000213868      45.8845 
          20      2.25333  3.61098e-05  0.000199862      45.8816 
          20      2.61333  3.93613e-05  0.000182125      45.8788 
          20            3  4.88561e-05  0.000162137      45.8761 
          40            0  2.74481e-19   4.0853e-24      44.8135 
          40     0.013333   0.00014497 -4.15772e-08      44.8135 
          40     0.053333  0.000220414 -6.43188e-07      44.8135 
          40         0.12  0.000342302 -2.64971e-06      44.8135 
          40     0.213332  0.000467528 -5.98678e-06      44.8135 
          40     0.333332  0.000548732 -9.14451e-06      44.8135 
          40         0.48  0.000576751 -1.04327e-05      44.8135 
          40     0.653331  0.000573147 -9.22884e-06      44.8135 
          40     0.853332  0.000555187 -5.90637e-06      44.8135 
          40         1.08   0.00050942 -1.44218e-06      44.8134 
          40      1.33333  0.000419873  2.70057e-06      44.8134 
          40      1.61333  0.000302829  6.03396e-06      44.8133 
          40         1.92  0.000182065  8.88157e-06      44.8132 
          40      2.25333    8.071e-05  1.05254e-05      44.8131 
          40      2.61333  1.46546e-05  1.19996e-05       44.813 
          40            3 -1.17243e-05  1.51142e-05      44.8128 
          60            0  1.25575e-19  1.06975e-24      43.8171 
          60     0.013333  0.000124334 -1.30322e-07      43.8171 
          60     0.053333  0.000174969 -1.85771e-06      43.8171 
          60         0.12  0.000293134  -7.5325e-06      43.8171 
          60     0.213332  0.000433028 -1.74517e-05      43.8171 
          60     0.333332  0.000530231 -2.95298e-05      43.8171 
          60         0.48  0.000567677 -4.24019e-05      43.8171 
          60     0.653331  0.000542812 -5.75898e-05       43.817 
          60     0.853332  0.000443068 -7.74397e-05       43.817 
          60         1.08   0.00031498 -9.96573e-05       43.817 
          60      1.33333  0.000223737 -0.000119172       43.817 
          60      1.61333  0.000155105  -0.00013334      43.8169 
          60         1.92  8.79625e-05 -0.000141149      43.8169 
          60      2.25333   3.0566e-05 -0.000142109      43.8168 
          60      2.61333  -7.6322e-06 -0.000136522      43.8168 
          60            3 -2.37092e-05 -0.000126202      43.8167 
          80            0            0            0      42.8534 
          80     0.013333   0.00015023 -3.31295e-08      42.8534 
          80     0.053333  0.000247047 -3.49042e-07      42.8534 
          80         0.12  0.000353651  -5.6562e-07      42.8534 
          80     0.213332  0.000402037  1.30231e-06      42.8534 
          80     0.333332  0.000377496  7.34704e-06      42.8534 
          80         0.48  0.000326103  1.76555e-05      42.8534 
          80     0.653331  0.000283974  3.00569e-05      42.8534 
          80     0.853332  0.000232377  4.08685e-05      42.8534 
          80         1.08  0.000157399  4.83037e-05      42.8534 
          80      1.33333  0.000103178  5.41204e-05      42.8534 
          80      1.61333  7.25383e-05  5.94003e-05      42.8534 
          80         1.92  4.35243e-05  6.27233e-05      42.8533 
          80      2.25333  2.32458e-05  6.33622e-05      42.8533 
          80      2.61333  1.64489e-05  6.19276e-05      42.8532 
          80            3  2.17848e-05  5.90797e-05      42.8532 
         100            0            0            0      41.9098 
         100     0.013333  0.000140522 -2.88228e-08      41.9098 
         100     0.053333  0.000224058 -3.57144e-07      41.9098 
         100         0.12  0.000341177 -1.10936e-06      41.9098 
         100     0.213332  0.000451128 -1.61575e-06      41.9098 
         100     0.333332  0.000529907 -8.88081e-07      41.9098 
         100         0.48  0.000582659  1.53484e-06      41.9098 
         100     0.653331   0.00061508  5.13539e-06      41.9098 
         100     0.853332  0.000604794  7.93991e-06      41.9098 
         100         1.08  0.000529952  8.06935e-06      41.9098 
         100      1.33333  0.000426656  6.04331e-06      41.9098 
         100      1.61333  0.000325199  3.60943e-06      41.9098 
         100         1.92  0.000215761  8.19049e-07      41.9098 
         100      2.25333  0.000113221 -2.20537e-06      41.9097 
         100      2.61333  3.58014e-05 -4.81167e-06      41.9097 
         100            3 -9.12208e-06 -7.21761e-06      41.9097 
         150            0  9.35715e-20  1.49062e-25      39.5965 
         150     0.013333  4.67083e-05 -6.64041e-09      39.5965 
         150     0.053333 -0.000106797 -2.14983e-07      39.5965 
         150         0.12 -0.000268585 -1.64866e-06      39.5965 
         150     0.213332 -0.000369126  -6.2902e-06      39.5965 
         150     0.333332  -0.00039867 -1.57964e-05      39.5965 
         150         0.48 -0.000395452 -3.03794e-05      39.5965 
         150     0.653331 -0.000394738 -4.89643e-05      39.5965 
         150     0.853332 -0.000390789 -6.92262e-05      39.5965 
         150         1.08  -0.00034791 -8.81611e-05      39.5965 
         150      1.33333 -0.000261336 -0.000103656      39.5965 
         150      1.61333 -0.000159319 -0.000115385      39.5965 
         150         1.92 -5.26238e-05 -0.000122673      39.5965 
         150      2.25333  5.08066e-05 -0.000124563      39.5965 
         150      2.61333   0.00013577 -0.000121427      39.5965 
         150            3  0.000188076 -0.000114349      39.5965 
         200            0            0            0      37.3126 
         200     0.013333    0.0001026  7.17594e-08      37.3126 
         200     0.053333  7.20656e-05  1.06012e-06      37.3126 
         200         0.12  1.71205e-06  4.62745e-06      37.3126 
         200     0.213332 -9.14706e-05  1.16734e-05      37.3126 
         200     0.333332 -0.000160793  2.12742e-05      37.3126 
         200         0.48 -0.000178044  3.17071e-05      37.3126 
         200     0.653331 -0.000150848  4.20937e-05      37.3126 
         200     0.853332 -0.000100103  5.22933e-05      37.3126 
         200         1.08 -5.02898e-05  6.14837e-05      37.3126 
         200      1.33333  -1.4142e-05  6.85594e-05      37.3126 
         200      1.61333  1.97282e-05  7.32139e-05      37.3126 
         200         1.92   5.6745e-05  7.52333e-05      37.3126 
         200      2.25333  9.17906e-05  7.43847e-05      37.3126 
         200      2.61333  0.000120067  7.05837e-05      37.3126 
         200            3  0.000138138  6.42712e-05      37.3126 
         250            0            0            0      35.0381 
         250     0.013333  7.31569e-05  1.35278e-07      35.0381 
         250     0.053333 -4.64348e-05  1.91892e-06      35.0381 
         250         0.12 -0.000251157  7.92079e-06      35.0381 
         250     0.213332 -0.000480125  1.88509e-05      35.0381 
         250     0.333332 -0.000646548  3.26048e-05      35.0381 
         250         0.48 -0.000717193  4.65883e-05      35.0381 
         250     0.653331 -0.000712666  6.02284e-05      35.0381 
         250     0.853332 -0.000647925  7.50372e-05      35.0381 
         250         1.08 -0.000527382   9.1982e-05      35.0381 
         250      1.33333 -0.000385372   0.00010952      35.0381 
         250      1.61333 -0.000251999  0.000124738      35.0381 
         250         1.92 -0.000116535  0.000136087      35.0381 
         250      2.25333   1.8545e-05  0.000142767      35.0381 
         250      2.61333  0.000137912  0.000143936      35.0381 
         250            3  0.000226191  0.000139941      35.0381 
         300            0            0            0       32.767 
         300     0.013333  0.000142046  7.70669e-08       32.767 
         300     0.053333  0.000208955  1.20449e-06       32.767 
         300         0.12  0.000236007  5.73446e-06       32.767 
         300     0.213332  0.000179396  1.61669e-05       32.767 
         300     0.333332  6.92231e-05   3.3372e-05       32.767 
         300         0.48 -2.92979e-05  5.61962e-05       32.767 
         300     0.653331  -7.7182e-05  8.28234e-05       32.767 
         300     0.853332 -7.31732e-05   0.00011189       32.767 
         300         1.08 -3.85768e-05  0.000142008       32.767 
         300      1.33333 -3.43546e-06  0.000171057       32.767 
         300      1.61333    1.912e-05  0.000196596       32.767 
         300         1.92   3.9652e-05  0.000216885       32.767 
         300      2.25333  6.22207e-05  0.000229975       32.767 
         300      2.61333  8.43193e-05  0.000234712       32.767 
         300            3  0.000102524  0.000231136       32.767 
         350            0           -0           -0      30.4966 
         350     0.013333  0.000178349 -6.93734e-09      30.4966 
         350     0.053333  0.000358116  5.08755e-08      30.4966 
         350         0.12   0.00055916  1.20802e-06      30.4966 
         350     0.213332  0.000679585  6.06955e-06      30.4966 
         350     0.333332  0.000691395  1.71439e-05      30.4966 
         350         0.48   0.00065176   3.4668e-05      30.4966 
         350     0.653331  0.000623617  5.66314e-05      30.4966 
         350     0.853332  0.000612136  7.99131e-05      30.4966 
         350         1.08  0.000573832  0.000101165      30.4966 
         350      1.33333  0.000488134  0.000118382      30.4966 
         350      1.61333  0.000387778  0.000131908      30.4966 
         350         1.92   0.00029066  0.000142107      30.4966 
         350      2.25333   0.00019293  0.000147718      30.4966 
         350      2.61333  9.83154e-05  0.000148253      30.4965 
         350            3   1.8406e-05  0.000143774      30.4965 
         400            0            0            0      28.2259 
         400     0.013333  0.000184747 -1.37287e-07      28.2259 
         400     0.053333  0.000424209 -1.92961e-06      28.2259 
         400         0.12  0.000804417 -7.84332e-06      28.2259 
         400     0.213332    0.0012107 -1.81995e-05      28.2259 
         400     0.333332   0.00150305 -3.00763e-05      28.2259 
         400         0.48   0.00162969 -3.96164e-05      28.2259 
         400     0.653331   0.00163685 -4.49746e-05      28.2259 
         400     0.853332   0.00157951 -4.72866e-05      28.2259 
         400         1.08   0.00145799 -4.95267e-05      28.2259 
         400      1.33333   0.00126329 -5.35995e-05      28.2259 
         400      1.61333   0.00103211 -5.82547e-05      28.2259 
         400         1.92  0.000788205 -6.16087e-05      28.2259 
         400      2.25333  0.000530298 -6.33261e-05      28.2259 
         400      2.61333   0.00027347 -6.31204e-05      28.2259 
         400            3  4.66307e-05 -6.09267e-05      28.2258 
         450            0            0            0      25.9533 
         450     0.013333  3.52593e-06  3.13066e-07      25.9533 
         450     0.053333  -0.00035504  4.53769e-06      25.9533 
         450         0.12 -0.000993466  1.93689e-05      25.9533 
         450     0.213332  -0.00176364  4.79912e-05      25.9533 
         450     0.333332  -0.00239554  8.62031e-05      25.9533 
         450         0.48  -0.00272496  0.000126169      25.9533 
         450     0.653331  -0.00278115  0.000163308      25.9533 
         450     0.853332  -0.00265474  0.000198563      25.9533 
         450         1.08  -0.00239106  0.000234801      25.9533 
         450      1.33333  -0.00203308  0.000271868      25.9533 
         450      1.61333  -0.00163982  0.000306281      25.9533 
         450         1.92  -0.00122371  0.000334707      25.9533 
         450      2.25333 -0.000777219  0.000354969      25.9533 
         450      2.61333 -0.000322082  0.000365165      25.9533 
         450            3  9.55473e-05  0.000364163      25.9534 
         500            0           -0           -0      23.6827 
         500     0.013333  0.000311391   -2.018e-07      23.6827 
         500     0.053333  0.000888621 -2.67031e-06      23.6827 
         500         0.12   0.00168431 -9.69547e-06      23.6827 
         500     0.213332   0.00240285 -1.85551e-05      23.6827 
         500     0.333332   0.00280381 -2.17726e-05      23.6827 
         500         0.48   0.00288472 -1.34011e-05      23.6827 
         500     0.653331   0.00280436  6.29766e-06      23.6827 
         500     0.853332   0.00267085   3.1646e-05      23.6827 
         500         1.08   0.00245421  5.48416e-05      23.6827 
         500      1.33333   0.00210669  7.08695e-05      23.6827 
         500      1.61333    0.0016925  8.08993e-05      23.6827 
         500         1.92   0.00128275  8.85055e-05      23.6827 
         500      2.25333  0.000861663  9.35358e-05      23.6827 
         500      2.61333  0.000434081  9.55063e-05      23.6826 
         500            3  3.83913e-05  9.42412e-05      23.6826 
         550            0           -0           -0      21.4086 
         550     0.013333 -0.000153252 -2.96018e-08      21.4086 
         550     0.053333 -0.000809083 -8.13265e-07      21.4086 
         550         0.12  -0.00152537 -6.10522e-06      21.4086 
         550     0.213332  -0.00195515 -2.38986e-05      21.4086 
         550     0.333332  -0.00198005 -6.23155e-05      21.4086 
         550         0.48  -0.00175983 -0.000123707      21.4086 
         550     0.653331  -0.00153301 -0.000203914      21.4086 
         550     0.853332  -0.00141194 -0.000295736      21.4085 
         550         1.08  -0.00133969 -0.000390875      21.4085 
         550      1.33333  -0.00119514  -0.00048117      21.4086 
         550      1.61333 -0.000954608 -0.000561691      21.4086 
         550         1.92 -0.000690925 -0.000631052      21.4086 
         550      2.25333 -0.000421462 -0.000686037      21.4086 
         550      2.61333 -0.000149997 -0.000722414      21.4086 
         550            3   0.00010619 -0.000736865      21.4086 
         600            0  1.91785e-19 -2.15629e-27      19.1359 
         600     0.013333  0.000316955   1.5603e-07      19.1359 
         600     0.053333  0.000810191  2.60605e-06      19.1359 
         600         0.12   0.00127336  1.34802e-05      19.1359 
         600     0.213332   0.00143614  4.12435e-05      19.1359 
         600     0.333332   0.00128382  9.14719e-05      19.1359 
         600         0.48   0.00101844  0.000163292      19.1359 
         600     0.653331   0.00084281  0.000251685      19.1359 
         600     0.853332  0.000828222  0.000351362      19.1359 
         600         1.08  0.000908229  0.000456408      19.1359 
         600      1.33333  0.000933588  0.000558431      19.1359 
         600      1.61333  0.000828232  0.000649846      19.1359 
         600         1.92  0.000670402  0.000727884      19.1359 
         600      2.25333  0.000506686  0.000789789      19.1359 
         600      2.61333  0.000343159  0.000831272      19.1359 
         600            3  0.000181855  0.000848439      19.1359 
         650            0           -0           -0      16.8616 
         650     0.013333  5.21147e-05 -2.47306e-07      16.8616 
         650     0.053333 -1.37278e-05 -3.76326e-06      16.8616 
         650         0.12  0.000103252 -1.72848e-05      16.8616 
         650     0.213332  0.000457326 -4.68684e-05      16.8616 
         650     0.333332  0.000892498 -9.30307e-05      16.8616 
         650         0.48   0.00120202 -0.000150843      16.8616 
         650     0.653331   0.00129901 -0.000215002      16.8616 
         650     0.853332   0.00121044 -0.000283433      16.8616 
         650         1.08   0.00100207 -0.000355493      16.8616 
         650      1.33333  0.000774912 -0.000427448      16.8616 
         650      1.61333  0.000620748 -0.000492927      16.8616 
         650         1.92  0.000514329 -0.000548201      16.8616 
         650      2.25333  0.000401267 -0.000591307      16.8616 
         650      2.61333  0.000272838 -0.000619836      16.8616 
         650            3  0.000146765 -0.000631044      16.8616 
         700            0            0            0      14.5858 
         700     0.013333  0.000163341  3.23869e-07      14.5858 
         700     0.053333   0.00021023  4.89205e-06      14.5858 
         700         0.12  2.65768e-05  2.22778e-05      14.5858 
         700     0.213332 -0.000455905   6.0019e-05      14.5858 
         700     0.333332  -0.00105285  0.000118847      14.5858 
         700         0.48  -0.00151091  0.000193063      14.5858 
         700     0.653331  -0.00171397  0.000276626      14.5858 
         700     0.853332  -0.00167646  0.000367511      14.5858 
         700         1.08  -0.00145145  0.000465838      14.5858 
         700      1.33333  -0.00114024  0.000568137      14.5858 
         700      1.61333 -0.000874549  0.000666363      14.5858 
         700         1.92 -0.000676611   0.00075365      14.5858 
         700      2.25333 -0.000480529  0.000826189      14.5858 
         700      2.61333 -0.000265174   0.00087985      14.5859 
         700            3 -5.00468e-05  0.000910383      14.5859 
         750            0            0            0      12.3106 
         750     0.013333  0.000132656 -2.65378e-07      12.3106 
         750     0.053333  0.000274826 -3.89945e-06      12.3106 
         750         0.12  0.000629269 -1.69825e-05      12.3106 
         750     0.213332   0.00112622 -4.30831e-05      12.3106 
         750     0.333332   0.00154576 -7.93471e-05      12.3106 
         750         0.48   0.00172521 -0.000119226      12.3106 
         750     0.653331    0.0016733 -0.000158982      12.3106 
         750     0.853332   0.00146989 -0.000200284      12.3106 
         750         1.08   0.00116262 -0.000246482      12.3106 
         750      1.33333   0.00082488 -0.000296147      12.3106 
         750      1.61333   0.00057681 -0.000342427      12.3106 
         750         1.92  0.000430166 -0.000380329      12.3106 
         750      2.25333   0.00030146 -0.000408985      12.3106 
         750      2.61333  0.000161177 -0.000427832      12.3105 
         750            3  2.63713e-05 -0.000435424      12.3105 
         800            0           -0           -0      10.0314 
         800     0.013333 -5.45043e-05   5.8228e-07      10.0314 
         800     0.053333 -0.000660987   8.5594e-06      10.0314 
         800         0.12  -0.00184675  3.73689e-05      10.0314 
         800     0.213332  -0.00340193  9.53087e-05      10.0314 
         800     0.333332  -0.00478244  0.000176705      10.0314 
         800         0.48  -0.00555326  0.000266471      10.0314 
         800     0.653331  -0.00568926  0.000353407      10.0314 
         800     0.853332   -0.0053972  0.000437478      10.0314 
         800         1.08  -0.00482873   0.00052502      10.0314 
         800      1.33333  -0.00409782  0.000617496      10.0314 
         800      1.61333  -0.00338083  0.000706699      10.0314 
         800         1.92  -0.00275266  0.000783863      10.0315 
         800      2.25333  -0.00211009  0.000845315      10.0315 
         800      2.61333  -0.00140832  0.000888749      10.0315 
         800            3  -0.00068327  0.000910991      10.0316 
         850            0           -0           -0      7.75485 
         850     0.013333  -0.00029425 -7.03673e-07      7.75485 
         850     0.053333  -0.00110867 -1.09812e-05      7.75485 
         850         0.12  -0.00148964 -5.24496e-05      7.75485 
         850     0.213332 -0.000891507 -0.000149406      7.75485 
         850     0.333332  0.000457197 -0.000313143      7.75485 
         850         0.48   0.00183584 -0.000535462      7.75485 
         850     0.653331   0.00267812 -0.000798781      7.75485 
         850     0.853332   0.00284166  -0.00108989      7.75485 
         850         1.08   0.00246705  -0.00140136      7.75485 
         850      1.33333   0.00187293  -0.00172127      7.75485 
         850      1.61333   0.00142211   -0.0020295      7.75485 
         850         1.92   0.00119553  -0.00230937      7.75485 
         850      2.25333    0.0010025  -0.00255138      7.75484 
         850      2.61333  0.000762191  -0.00274402      7.75483 
         850            3  0.000503972  -0.00287381      7.75482 
         900            0  3.69327e-19  1.91805e-27      5.47692 
         900     0.013333  0.000821451 -1.41243e-07      5.47692 
         900     0.053333   0.00272716 -1.35154e-06      5.47692 
         900         0.12   0.00513119 -9.03552e-07      5.47692 
         900     0.213332   0.00710246  1.45184e-05      5.47692 
         900     0.333332    0.0080302  6.47867e-05      5.47692 
         900         0.48   0.00800046    0.0001629      5.47692 
         900     0.653331   0.00755827  0.000307143      5.47692 
         900     0.853332   0.00716918  0.000484871      5.47693 
         900         1.08   0.00690352  0.000678169      5.47693 
         900      1.33333   0.00649784  0.000867181      5.47693 
         900      1.61333   0.00573991   0.00103672      5.47692 
         900         1.92    0.0047734   0.00118476       5.4769 
         900      2.25333    0.0037647   0.00131327      5.47688 
         900      2.61333   0.00273135   0.00141752      5.47683 
         900            3   0.00165155   0.00148981      5.47677 
         950            0           -0           -0      3.19298 
         950     0.013333  0.000119268  5.40771e-07      3.19298 
         950     0.053333 -1.84819e-05  8.05075e-06      3.19298 
         950         0.12 -0.000599757  3.59566e-05      3.19298 
         950     0.213332  -0.00164728  9.49892e-05      3.19298 
         950     0.333332  -0.00280628  0.000184878      3.19298 
         950         0.48  -0.00366429  0.000296008      3.19298 
         950     0.653331  -0.00406897  0.000418926      3.19298 
         950     0.853332  -0.00408631   0.00055144      3.19298 
         950         1.08  -0.00378419  0.000697534      3.19298 
         950      1.33333  -0.00320939  0.000859413      3.19298 
         950      1.61333  -0.00253254   0.00102956      3.19298 
         950         1.92   -0.0019845   0.00119279      3.19299 
         950      2.25333  -0.00151946   0.00133852        3.193 
         950      2.61333  -0.00104997   0.00145993      3.19303 
         950            3 -0.000553798   0.00155084      3.19306 
        1000            0           -0           -0     0.912084 
        1000     0.013333 -0.000188192 -9.45683e-08     0.912084 
        1000     0.053333 -0.000931312  -1.7218e-06     0.912084 
        1000         0.12   -0.0017477 -9.71777e-06     0.912084 
        1000     0.213332  -0.00225033 -3.22542e-05     0.912084 
        1000     0.333332  -0.00229041 -7.67855e-05     0.912083 
        1000         0.48  -0.00202762 -0.000145164     0.912083 
        1000     0.653331  -0.00174295 -0.000233539     0.912082 
        1000     0.853332  -0.00161412 -0.000335749     0.912081 
        1000         1.08  -0.00164147 -0.000445622     0.912081 
        1000      1.33333  -0.00168621 -0.000555814     0.912081 
        1000      1.61333  -0.00159354  -0.00065785     0.912082 
        1000         1.92  -0.00135472 -0.000747117     0.912086 
        1000      2.25333  -0.00108242 -0.000823276     0.912092 
        1000      2.61333 -0.000815738 -0.000884283     0.912103 
        1000            3 -0.000537824 -0.000926333     0.912117 
