Variables = x, y, u, v, p

Zone, I=416, F=POINT
         -50            0            0            0      86.7012 
         -50     0.013333  0.000194452   6.4403e-08      86.7012 
         -50     0.053333  0.000181841  2.54145e-07      86.7012 
         -50         0.12  0.000184596  8.15317e-07      86.7012 
         -50     0.213332  0.000185748  2.05531e-06      86.7011 
         -50     0.333332   0.00018514  4.28361e-06       86.701 
         -50         0.48  0.000185545   6.4253e-06      86.7009 
         -50     0.653331  0.000188067  9.22739e-06      86.7006 
         -50     0.853332  0.000188994  1.25401e-05      86.7002 
         -50         1.08  0.000186044  1.56172e-05      86.6995 
         -50      1.33333  0.000179788  1.75996e-05      86.6987 
         -50      1.61333  0.000170909  1.96995e-05      86.6975 
         -50         1.92  0.000165878  2.13943e-05       86.696 
         -50      2.25333  0.000165917  2.40692e-05      86.6941 
         -50      2.61333  0.000172642  2.90542e-05      86.6916 
         -50            3  0.000182322  3.54899e-05      86.6886 
         -25            0           -0           -0      83.2358 
         -25     0.013333  0.000136493  4.58238e-09      83.2358 
         -25     0.053333  0.000119089 -2.22109e-07      83.2357 
         -25         0.12  0.000126521 -1.16691e-06      83.2357 
         -25     0.213332  0.000149172 -3.20449e-06      83.2357 
         -25     0.333332  0.000173751 -6.24468e-06      83.2357 
         -25         0.48  0.000188784 -9.88353e-06      83.2356 
         -25     0.653331  0.000191082 -1.39707e-05      83.2355 
         -25     0.853332  0.000182241 -1.82141e-05      83.2354 
         -25         1.08  0.000168452 -2.19912e-05      83.2351 
         -25      1.33333  0.000154272 -2.49053e-05      83.2348 
         -25      1.61333  0.000140579 -2.65239e-05      83.2344 
         -25         1.92  0.000130965 -2.60943e-05      83.2338 
         -25      2.25333  0.000118994 -2.50908e-05      83.2331 
         -25      2.61333  0.000107894 -2.26917e-05      83.2321 
         -25            3  0.000104339 -1.81781e-05       83.231 
           0            0            0            0      80.3889 
           0     0.013333   0.00031157 -0.000215099      80.3922 
           0     0.053333  0.000257188 -0.000107937      80.3973 
           0         0.12  0.000257854 -7.83278e-05       80.403 
           0     0.213332  0.000262985  -6.1415e-05       80.409 
           0     0.333332  0.000260281 -5.05198e-05      80.4152 
           0         0.48  0.000252399 -4.08361e-05      80.4214 
           0     0.653331  0.000244755 -3.21102e-05      80.4274 
           0     0.853332  0.000230607 -2.44306e-05      80.4334 
           0         1.08  0.000204892  -1.7953e-05      80.4391 
           0      1.33333   0.00017221 -1.25459e-05      80.4445 
           0      1.61333  0.000136291 -8.08305e-06      80.4498 
           0         1.92   0.00010144 -4.60804e-06      80.4547 
           0      2.25333  7.64989e-05 -1.83309e-06      80.4593 
           0      2.61333   6.6523e-05  5.71722e-07      80.4636 
           0            3  6.36463e-05  6.23934e-07      80.4676 
          20            0            0            0      78.7717 
          20     0.013333  0.000786311  0.000563498      78.7686 
          20     0.053333  0.000906785  0.000569446      78.7639 
          20         0.12  0.000737723  0.000397466      78.7586 
          20     0.213332  0.000569888  0.000247763       78.753 
          20     0.333332  0.000479599  0.000153084      78.7472 
          20         0.48   0.00045578  9.74455e-05      78.7414 
          20     0.653331  0.000463731   6.9643e-05      78.7356 
          20     0.853332  0.000442858  5.77776e-05      78.7299 
          20         1.08  0.000371138  5.26428e-05      78.7244 
          20      1.33333  0.000271809  5.00655e-05      78.7189 
          20      1.61333   0.00016413  4.82259e-05      78.7137 
          20         1.92  6.49962e-05  4.58866e-05      78.7085 
          20      2.25333 -9.25995e-06  4.23136e-05      78.7035 
          20      2.61333 -5.21084e-05  3.68364e-05      78.6987 
          20            3 -6.92762e-05  2.83833e-05      78.6939 
          40            0  2.98591e-19  7.29891e-24       76.866 
          40     0.013333  0.000151874   1.6295e-08       76.866 
          40     0.053333  0.000257357  3.34735e-07       76.866 
          40         0.12  0.000357816  2.40118e-06       76.866 
          40     0.213332   0.00038492  8.76105e-06      76.8659 
          40     0.333332  0.000353052  2.10197e-05      76.8659 
          40         0.48  0.000319129  3.85269e-05      76.8659 
          40     0.653331  0.000309131  5.90602e-05      76.8659 
          40     0.853332  0.000300791    7.979e-05      76.8659 
          40         1.08  0.000270699  9.89527e-05      76.8658 
          40      1.33333  0.000214487  0.000114465      76.8657 
          40      1.61333  0.000147684  0.000124549      76.8656 
          40         1.92  8.53526e-05  0.000128114      76.8655 
          40      2.25333  3.38304e-05  0.000124868      76.8653 
          40      2.61333  1.60847e-06  0.000116705       76.865 
          40            3 -7.88976e-06  0.000104839      76.8648 
          60            0  1.41601e-19  1.91484e-24      75.1513 
          60     0.013333   0.00014125  4.44768e-08      75.1513 
          60     0.053333   0.00022839  7.33429e-07      75.1513 
          60         0.12  0.000304988  3.85716e-06      75.1513 
          60     0.213332  0.000318394  1.16481e-05      75.1513 
          60     0.333332  0.000289168  2.49987e-05      75.1513 
          60         0.48   0.00026891  4.31216e-05      75.1513 
          60     0.653331  0.000286526  6.45511e-05      75.1513 
          60     0.853332  0.000319444  8.66326e-05      75.1513 
          60         1.08  0.000312516  0.000105647      75.1513 
          60      1.33333  0.000259007  0.000119403      75.1512 
          60      1.61333  0.000195119  0.000128118      75.1512 
          60         1.92  0.000135384   0.00013128      75.1511 
          60      2.25333  8.36903e-05   0.00012819       75.151 
          60      2.61333  4.47728e-05   0.00012005      75.1509 
          60            3  2.35839e-05  0.000108994      75.1507 
          80            0            0            0       73.493 
          80     0.013333  0.000119434  5.09921e-08       73.493 
          80     0.053333  0.000156309  7.96153e-07       73.493 
          80         0.12  0.000172209  3.86473e-06       73.493 
          80     0.213332  0.000137065  1.09389e-05       73.493 
          80     0.333332  7.74588e-05  2.23484e-05       73.493 
          80         0.48  3.49108e-05  3.70758e-05       73.493 
          80     0.653331  3.01079e-05  5.39096e-05       73.493 
          80     0.853332  5.18844e-05  7.13249e-05       73.493 
          80         1.08  6.29396e-05  8.67664e-05       73.493 
          80      1.33333    5.447e-05  9.83455e-05       73.493 
          80      1.61333  5.15439e-05  0.000106075      73.4929 
          80         1.92  5.45862e-05  0.000109453      73.4929 
          80      2.25333  6.00755e-05  0.000107821      73.4928 
          80      2.61333  6.94289e-05  0.000102143      73.4927 
          80            3   8.3605e-05  9.41696e-05      73.4927 
         100            0            0            0      71.8691 
         100     0.013333  0.000139391  2.25019e-08      71.8691 
         100     0.053333  0.000237608  4.25289e-07      71.8691 
         100         0.12  0.000336226  2.53021e-06      71.8691 
         100     0.213332  0.000371085  8.46317e-06      71.8691 
         100     0.333332  0.000344045   1.9696e-05      71.8691 
         100         0.48  0.000300758  3.60394e-05      71.8691 
         100     0.653331  0.000276833  5.60836e-05       71.869 
         100     0.853332   0.00026619  7.75178e-05       71.869 
         100         1.08  0.000238996  9.77277e-05       71.869 
         100      1.33333   0.00019247  0.000114816       71.869 
         100      1.61333  0.000145988  0.000128044       71.869 
         100         1.92  0.000102832  0.000136335       71.869 
         100      2.25333  6.10245e-05  0.000138091      71.8689 
         100      2.61333  2.48818e-05  0.000134077      71.8689 
         100            3  3.94191e-06  0.000126201      71.8688 
         150            0  9.26636e-20  2.60362e-25      67.8881 
         150     0.013333  2.65691e-05 -1.49206e-07      67.8881 
         150     0.053333 -0.000103978 -2.36002e-06      67.8881 
         150         0.12 -0.000132612 -1.13098e-05      67.8881 
         150     0.213332  2.88216e-06 -3.18364e-05      67.8881 
         150     0.333332  0.000223927 -6.52029e-05      67.8881 
         150         0.48  0.000404048 -0.000108801      67.8881 
         150     0.653331  0.000476785 -0.000159234      67.8881 
         150     0.853332  0.000449437 -0.000213424      67.8881 
         150         1.08  0.000382361 -0.000266974      67.8881 
         150      1.33333  0.000323811 -0.000314827      67.8881 
         150      1.61333  0.000266894 -0.000353344       67.888 
         150         1.92  0.000201662 -0.000379295       67.888 
         150      2.25333  0.000134097 -0.000389615       67.888 
         150      2.61333  7.45133e-05 -0.000384104       67.888 
         150            3  3.23164e-05 -0.000364868       67.888 
         200            0            0            0      63.9571 
         200     0.013333  1.18541e-05  2.27683e-08      63.9571 
         200     0.053333 -0.000204973  2.24485e-07      63.9571 
         200         0.12 -0.000454967  2.34401e-07      63.9571 
         200     0.213332  -0.00063808 -1.88366e-06      63.9571 
         200     0.333332 -0.000700684 -8.99115e-06      63.9571 
         200         0.48 -0.000672223 -2.28946e-05      63.9571 
         200     0.653331 -0.000616414 -4.33682e-05      63.9571 
         200     0.853332  -0.00056739 -6.85889e-05      63.9571 
         200         1.08 -0.000509988 -9.58702e-05      63.9571 
         200      1.33333 -0.000415372 -0.000121886      63.9571 
         200      1.61333  -0.00028899 -0.000144355      63.9571 
         200         1.92 -0.000151768  -0.00016192      63.9571 
         200      2.25333 -1.60554e-05 -0.000172703      63.9571 
         200      2.61333  0.000102227 -0.000176337      63.9571 
         200            3  0.000187344 -0.000173107      63.9571 
         250            0            0            0      60.0439 
         250     0.013333  2.94257e-05  1.79468e-07      60.0439 
         250     0.053333 -0.000178302  2.49622e-06      60.0439 
         250         0.12  -0.00049791  9.98404e-06      60.0439 
         250     0.213332 -0.000828864  2.27874e-05      60.0439 
         250     0.333332  -0.00105258  3.75116e-05      60.0439 
         250         0.48  -0.00114365  5.09039e-05      60.0439 
         250     0.653331  -0.00114174  6.30092e-05      60.0439 
         250     0.853332  -0.00105946  7.68791e-05      60.0439 
         250         1.08 -0.000887051   9.4768e-05      60.0439 
         250      1.33333 -0.000670639   0.00011494      60.0439 
         250      1.61333 -0.000463583  0.000133166      60.0439 
         250         1.92 -0.000254238  0.000147313      60.0439 
         250      2.25333 -4.58287e-05  0.000156573      60.0439 
         250      2.61333  0.000139322  0.000159779      60.0439 
         250            3  0.000275779  0.000157004       60.044 
         300            0            0            0      56.1375 
         300     0.013333 -3.55744e-06  7.44827e-08      56.1375 
         300     0.053333 -0.000266941  9.06825e-07      56.1375 
         300         0.12 -0.000581116  2.70738e-06      56.1375 
         300     0.213332 -0.000807664  2.97539e-06      56.1375 
         300     0.333332 -0.000867937 -2.42688e-06      56.1375 
         300         0.48 -0.000806913  -1.5611e-05      56.1375 
         300     0.653331 -0.000713704 -3.50375e-05      56.1375 
         300     0.853332 -0.000622077 -5.68765e-05      56.1375 
         300         1.08 -0.000510772 -7.76207e-05      56.1375 
         300      1.33333 -0.000377141 -9.59083e-05      56.1375 
         300      1.61333 -0.000245115 -0.000112251      56.1375 
         300         1.92 -0.000114162 -0.000126093      56.1375 
         300      2.25333  1.64696e-05  -0.00013593      56.1375 
         300      2.61333  0.000135497 -0.000141075      56.1375 
         300            3  0.000227371 -0.000141087      56.1375 
         350            0           -0           -0      52.2336 
         350     0.013333  6.45715e-05  1.94044e-07      52.2336 
         350     0.053333 -6.14705e-05   2.7959e-06      52.2336 
         350         0.12 -0.000311549  1.18449e-05      52.2336 
         350     0.213332 -0.000633763  2.92209e-05      52.2336 
         350     0.333332 -0.000903784  5.27899e-05      52.2336 
         350         0.48  -0.00105065  7.90063e-05      52.2336 
         350     0.653331  -0.00108344  0.000106524      52.2336 
         350     0.853332  -0.00101988   0.00013685      52.2336 
         350         1.08 -0.000863643  0.000171427      52.2336 
         350      1.33333 -0.000663015  0.000208075      52.2336 
         350      1.61333 -0.000480273  0.000241768      52.2336 
         350         1.92 -0.000304549    0.0002692      52.2336 
         350      2.25333 -0.000124067  0.000288565      52.2336 
         350      2.61333  4.90963e-05  0.000298071      52.2337 
         350            3  0.000193099  0.000297097      52.2337 
         400            0            0            0      48.3314 
         400     0.013333  6.76922e-05   5.4832e-08      48.3314 
         400     0.053333   -1.366e-05  7.64313e-07      48.3314 
         400         0.12 -0.000124795  3.03314e-06      48.3314 
         400     0.213332 -0.000227799  6.69812e-06      48.3314 
         400     0.333332 -0.000275778  1.02172e-05      48.3314 
         400         0.48 -0.000263434  1.21367e-05      48.3314 
         400     0.653331 -0.000218237  1.25192e-05      48.3314 
         400     0.853332 -0.000159097  1.26671e-05      48.3314 
         400         1.08 -9.13633e-05  1.34475e-05      48.3314 
         400      1.33333 -3.40055e-05  1.40133e-05      48.3314 
         400      1.61333  7.80018e-07  1.30962e-05      48.3314 
         400         1.92  3.17306e-05  1.08778e-05      48.3314 
         400      2.25333  6.39802e-05  7.84967e-06      48.3314 
         400      2.61333   9.3909e-05  4.26293e-06      48.3314 
         400            3  0.000117352   3.5416e-07      48.3314 
         450            0            0            0      44.4298 
         450     0.013333  8.86905e-05  7.94136e-08      44.4298 
         450     0.053333  5.41976e-05  1.16076e-06      44.4298 
         450         0.12 -2.00776e-05   5.0025e-06      44.4298 
         450     0.213332 -0.000121754  1.25036e-05      44.4298 
         450     0.333332 -0.000197764  2.26927e-05      44.4298 
         450         0.48 -0.000216415  3.38449e-05      44.4298 
         450     0.653331 -0.000185652  4.53374e-05      44.4298 
         450     0.853332 -0.000121839  5.78755e-05      44.4298 
         450         1.08 -3.89437e-05  7.18185e-05      44.4298 
         450      1.33333  3.00127e-05   8.5561e-05      44.4298 
         450      1.61333  6.23945e-05  9.68569e-05      44.4299 
         450         1.92  8.20655e-05  0.000105117      44.4299 
         450      2.25333  0.000101454  0.000110197      44.4299 
         450      2.61333  0.000119987  0.000111731      44.4299 
         450            3  0.000133682  0.000109447      44.4299 
         500            0           -0           -0      40.5295 
         500     0.013333  0.000234033 -1.03368e-08      40.5295 
         500     0.053333  0.000592599  5.65862e-08      40.5295 
         500         0.12   0.00101273   1.6699e-06      40.5295 
         500     0.213332   0.00128865  8.94766e-06      40.5295 
         500     0.333332   0.00133095   2.6809e-05      40.5295 
         500         0.48   0.00121253  5.73454e-05      40.5295 
         500     0.653331   0.00106734  9.86648e-05      40.5295 
         500     0.853332  0.000965912  0.000146685      40.5295 
         500         1.08  0.000888119  0.000196844      40.5295 
         500      1.33333  0.000783128  0.000245178      40.5295 
         500      1.61333  0.000642267   0.00028931      40.5295 
         500         1.92   0.00049046  0.000328061      40.5294 
         500      2.25333  0.000332546  0.000359002      40.5294 
         500      2.61333  0.000173473  0.000379759      40.5294 
         500            3  2.66706e-05  0.000388633      40.5294 
         550            0           -0           -0      36.6287 
         550     0.013333 -0.000125963 -1.21462e-07      36.6287 
         550     0.053333 -0.000651878 -2.12721e-06      36.6287 
         550         0.12  -0.00114627 -1.16006e-05      36.6287 
         550     0.213332  -0.00132692 -3.71603e-05      36.6287 
         550     0.333332  -0.00116161 -8.53798e-05      36.6287 
         550         0.48 -0.000855211 -0.000156193      36.6287 
         550     0.653331   -0.0006275 -0.000244191      36.6287 
         550     0.853332 -0.000554525 -0.000342667      36.6287 
         550         1.08 -0.000563845 -0.000444572      36.6287 
         550      1.33333 -0.000529308 -0.000542356      36.6287 
         550      1.61333 -0.000413968 -0.000630583      36.6287 
         550         1.92 -0.000279028 -0.000706724      36.6287 
         550      2.25333 -0.000145438 -0.000766992      36.6287 
         550      2.61333 -1.50559e-05 -0.000806606      36.6287 
         550            3  0.000106806 -0.000821837      36.6287 
         600            0  1.74452e-19   2.8476e-27      32.7295 
         600     0.013333   0.00024579  2.19864e-07      32.7295 
         600     0.053333  0.000573663  3.44644e-06      32.7295 
         600         0.12  0.000816516  1.64977e-05      32.7295 
         600     0.213332  0.000784581  4.68964e-05      32.7295 
         600     0.333332  0.000531019  9.78611e-05      32.7295 
         600         0.48  0.000249168  0.000166968      32.7296 
         600     0.653331  8.98938e-05   0.00024996      32.7296 
         600     0.853332  0.000101104  0.000344097      32.7295 
         600         1.08  0.000241181   0.00044632      32.7295 
         600      1.33333  0.000376852  0.000549411      32.7295 
         600      1.61333  0.000395747  0.000644242      32.7295 
         600         1.92  0.000345649  0.000725994      32.7295 
         600      2.25333  0.000285844   0.00079154      32.7295 
         600      2.61333   0.00022773   0.00083661      32.7295 
         600            3   0.00016516  0.000857198      32.7295 
         650            0           -0           -0      28.8308 
         650     0.013333   0.00022057 -4.07131e-08      28.8308 
         650     0.053333  0.000546824 -3.62819e-07      28.8308 
         650         0.12   0.00092427  5.58766e-08      28.8308 
         650     0.213332   0.00113552  5.62426e-06      28.8308 
         650     0.333332   0.00107851  2.23231e-05      28.8308 
         650         0.48  0.000846673  5.26844e-05      28.8308 
         650     0.653331  0.000612099  9.34402e-05      28.8308 
         650     0.853332  0.000451161  0.000137887      28.8308 
         650         1.08  0.000315391   0.00017947      28.8308 
         650      1.33333  0.000159944  0.000215469      28.8308 
         650      1.61333  3.43209e-05  0.000248047      28.8308 
         650         1.92 -3.01174e-05  0.000279102      28.8308 
         650      2.25333 -7.20455e-05   0.00030664      28.8308 
         650      2.61333 -0.000108709  0.000327967      28.8308 
         650            3 -0.000134147  0.000341053      28.8308 
         700            0            0            0      24.9313 
         700     0.013333 -0.000385872  7.62545e-09      24.9313 
         700     0.053333  -0.00162302 -5.06059e-07      24.9313 
         700         0.12  -0.00304569 -6.46458e-06      24.9313 
         700     0.213332  -0.00400817 -3.07026e-05      24.9313 
         700     0.333332  -0.00420209 -8.84204e-05      24.9313 
         700         0.48  -0.00384468 -0.000186316      24.9313 
         700     0.653331  -0.00338269 -0.000318862      24.9313 
         700     0.853332  -0.00308539 -0.000473511      24.9313 
         700         1.08  -0.00290049 -0.000635345      24.9313 
         700      1.33333  -0.00261473 -0.000790395      24.9313 
         700      1.61333  -0.00216172 -0.000931009      24.9313 
         700         1.92  -0.00166999  -0.00105685      24.9313 
         700      2.25333  -0.00117299  -0.00116405      24.9313 
         700      2.61333  -0.00066409  -0.00124571      24.9314 
         700            3  -0.00015721  -0.00129494      24.9314 
         750            0            0            0      21.0365 
         750     0.013333  0.000526576 -2.59546e-07      21.0365 
         750     0.053333   0.00172415 -3.33682e-06      21.0365 
         750         0.12   0.00334252 -1.13414e-05      21.0365 
         750     0.213332   0.00479751 -1.84313e-05      21.0365 
         750     0.333332   0.00562933 -1.15409e-05      21.0365 
         750         0.48   0.00581351  1.98844e-05      21.0365 
         750     0.653331    0.0056612    7.645e-05      21.0365 
         750     0.853332   0.00545011  0.000149797      21.0365 
         750         1.08   0.00519003  0.000226492      21.0365 
         750      1.33333    0.0047148  0.000293361      21.0365 
         750      1.61333   0.00399843  0.000345175      21.0365 
         750         1.92   0.00322981  0.000386945      21.0365 
         750      2.25333   0.00245038  0.000421424      21.0364 
         750      2.61333   0.00164146  0.000446793      21.0364 
         750            3  0.000816802  0.000460212      21.0363 
         800            0           -0           -0      17.1372 
         800     0.013333  7.56998e-06  3.01798e-07      17.1372 
         800     0.053333 -0.000308239  4.36792e-06      17.1372 
         800         0.12 -0.000895175  1.86777e-05      17.1372 
         800     0.213332  -0.00164458  4.67027e-05      17.1372 
         800     0.333332  -0.00230599  8.54888e-05      17.1372 
         800         0.48  -0.00270385  0.000128674      17.1372 
         800     0.653331  -0.00284475  0.000172206      17.1372 
         800     0.853332   -0.0028143  0.000216985      17.1372 
         800         1.08  -0.00263668  0.000267507      17.1372 
         800      1.33333  -0.00229163   0.00032736      17.1372 
         800      1.61333  -0.00184743  0.000393965      17.1372 
         800         1.92   -0.0014428  0.000458772      17.1372 
         800      2.25333  -0.00106415  0.000516396      17.1373 
         800      2.61333 -0.000674697  0.000563207      17.1373 
         800            3 -0.000275675  0.000596444      17.1373 
         850            0           -0           -0      13.2419 
         850     0.013333 -3.21683e-05   -1.221e-07      13.2419 
         850     0.053333 -0.000321854 -1.95342e-06      13.2419 
         850         0.12 -0.000556272 -9.66286e-06      13.2419 
         850     0.213332 -0.000576284 -2.86382e-05      13.2419 
         850     0.333332 -0.000380604 -6.24665e-05      13.2419 
         850         0.48 -0.000106785 -0.000110782      13.2419 
         850     0.653331  0.000103108  -0.00017025      13.2419 
         850     0.853332  0.000191151 -0.000237261      13.2419 
         850         1.08  0.000174742  -0.00030921      13.2419 
         850      1.33333  0.000109173 -0.000383486      13.2419 
         850      1.61333  5.81953e-05 -0.000456348      13.2419 
         850         1.92  5.36464e-05 -0.000523716      13.2419 
         850      2.25333  6.60935e-05  -0.00058252      13.2419 
         850      2.61333  7.70942e-05 -0.000629804      13.2419 
         850            3  8.71992e-05 -0.000662512      13.2419 
         900            0  1.81182e-19  3.59416e-28      9.34749 
         900     0.013333  0.000277553 -2.09877e-07      9.34749 
         900     0.053333  0.000824957 -2.96905e-06      9.34749 
         900         0.12   0.00167313 -1.21665e-05      9.34749 
         900     0.213332   0.00258173 -2.83452e-05      9.34749 
         900     0.333332   0.00325529 -4.64111e-05      9.34749 
         900         0.48   0.00354809 -5.90751e-05      9.34749 
         900     0.653331   0.00353504 -6.24252e-05      9.34749 
         900     0.853332   0.00337068 -5.79987e-05      9.34749 
         900         1.08    0.0031326 -5.07221e-05       9.3475 
         900      1.33333   0.00281846 -4.48501e-05      9.34749 
         900      1.61333   0.00244323 -4.11294e-05      9.34749 
         900         1.92   0.00205458 -3.75698e-05      9.34748 
         900      2.25333   0.00165019 -3.30126e-05      9.34747 
         900      2.61333   0.00121798 -2.76516e-05      9.34745 
         900            3  0.000763929 -2.18541e-05      9.34743 
         950            0           -0           -0       5.4521 
         950     0.013333  0.000356523  1.76188e-07       5.4521 
         950     0.053333  0.000984854  2.87934e-06       5.4521 
         950         0.12   0.00161295  1.46564e-05       5.4521 
         950     0.213332    0.0018821  4.47507e-05       5.4521 
         950     0.333332   0.00170856  0.000100398       5.4521 
         950         0.48   0.00128948  0.000182681       5.4521 
         950     0.653331  0.000895012  0.000287321       5.4521 
         950     0.853332  0.000683895  0.000408829       5.4521 
         950         1.08  0.000670971  0.000542475       5.4521 
         950      1.33333  0.000754832  0.000682342       5.4521 
         950      1.61333  0.000786294   0.00082007       5.4521 
         950         1.92  0.000704493   0.00094822       5.4521 
         950      2.25333  0.000579773   0.00106292      5.45209 
         950      2.61333  0.000451916   0.00115914      5.45209 
         950            3  0.000320331   0.00123098      5.45208 
        1000            0           -0           -0      1.55693 
        1000     0.013333  0.000129588   2.1606e-07      1.55693 
        1000     0.053333  0.000148693   3.2637e-06      1.55693 
        1000         0.12 -4.71375e-06   1.4835e-05      1.55693 
        1000     0.213332 -0.000409864  4.01441e-05      1.55693 
        1000     0.333332 -0.000957078  8.03619e-05      1.55693 
        1000         0.48  -0.00144861  0.000132217      1.55693 
        1000     0.653331  -0.00175483  0.000191303      1.55693 
        1000     0.853332    -0.001862  0.000254953      1.55693 
        1000         1.08  -0.00180568   0.00032297      1.55693 
        1000      1.33333  -0.00161795  0.000395893      1.55693 
        1000      1.61333  -0.00134773  0.000472245      1.55693 
        1000         1.92  -0.00107542  0.000547406      1.55693 
        1000      2.25333 -0.000818268   0.00061612      1.55694 
        1000      2.61333 -0.000559391  0.000674593      1.55695 
        1000            3 -0.000285737  0.000719503      1.55696 
