Variables = x, y, u, v, p

Zone, I=416, F=POINT
         -50            0            0            0     -210.942 
         -50     0.013333 -0.000521038 -1.63877e-07     -210.942 
         -50     0.053333 -0.000476151 -5.18489e-07     -210.942 
         -50         0.12  -0.00046415 -1.20151e-06     -210.942 
         -50     0.213332 -0.000459127 -2.27295e-06     -210.942 
         -50     0.333332 -0.000458471 -3.99298e-06     -210.941 
         -50         0.48 -0.000459252 -5.08103e-06     -210.941 
         -50     0.653331 -0.000460784 -6.90448e-06      -210.94 
         -50     0.853332 -0.000461123 -8.28818e-06     -210.939 
         -50         1.08 -0.000457997  -1.0216e-05     -210.938 
         -50      1.33333 -0.000452129 -1.18406e-05     -210.936 
         -50      1.61333    -0.000446 -1.37192e-05     -210.933 
         -50         1.92 -0.000447935 -1.62315e-05     -210.929 
         -50      2.25333  -0.00045219 -1.82885e-05     -210.925 
         -50      2.61333 -0.000456181 -2.17247e-05     -210.919 
         -50            3 -0.000460933 -2.88103e-05     -210.911 
         -25            0           -0           -0     -202.526 
         -25     0.013333 -0.000387577 -6.14455e-08     -202.526 
         -25     0.053333 -0.000370272 -2.04946e-07     -202.526 
         -25         0.12 -0.000377448 -6.10995e-07     -202.526 
         -25     0.213332 -0.000380879 -1.60518e-06     -202.526 
         -25     0.333332 -0.000377642 -3.48403e-06     -202.526 
         -25         0.48 -0.000372372  -6.2635e-06     -202.526 
         -25     0.653331 -0.000370717 -9.71983e-06     -202.526 
         -25     0.853332 -0.000370129 -1.34183e-05     -202.525 
         -25         1.08 -0.000365372  -1.7136e-05     -202.525 
         -25      1.33333 -0.000355814 -2.02966e-05     -202.524 
         -25      1.61333 -0.000342859 -2.27884e-05     -202.523 
         -25         1.92 -0.000328842  -2.4567e-05     -202.522 
         -25      2.25333   -0.0003147 -2.44824e-05      -202.52 
         -25      2.61333 -0.000305129 -2.40463e-05     -202.518 
         -25            3 -0.000304127 -2.60465e-05     -202.515 
           0            0            0            0     -195.614 
           0     0.013333  -0.00089187  0.000582928     -195.622 
           0     0.053333 -0.000583486  0.000301938     -195.634 
           0         0.12 -0.000453873  0.000210972     -195.648 
           0     0.213332 -0.000380507  0.000161363     -195.662 
           0     0.333332 -0.000336245  0.000129791     -195.677 
           0         0.48 -0.000304196  0.000105034     -195.692 
           0     0.653331 -0.000284474  8.51525e-05     -195.707 
           0     0.853332 -0.000275029  6.85604e-05     -195.721 
           0         1.08 -0.000272203  5.45033e-05     -195.735 
           0      1.33333 -0.000273057  4.26825e-05     -195.748 
           0      1.61333 -0.000275961  3.29399e-05     -195.761 
           0         1.92 -0.000278659   2.5135e-05     -195.773 
           0      2.25333 -0.000279482  1.91043e-05     -195.784 
           0      2.61333 -0.000279237  1.45232e-05     -195.794 
           0            3 -0.000276385    1.384e-05     -195.804 
          20            0            0            0     -191.684 
          20     0.013333 -0.000666489 -0.000409729     -191.677 
          20     0.053333 -0.000346825 -0.000120392     -191.666 
          20         0.12 -0.000298867 -7.57731e-05     -191.653 
          20     0.213332  -0.00031954  -6.6286e-05     -191.639 
          20     0.333332 -0.000353127  -6.1983e-05     -191.625 
          20         0.48  -0.00037419 -5.47407e-05     -191.611 
          20     0.653331 -0.000378478 -4.56582e-05     -191.597 
          20     0.853332 -0.000368847 -3.58127e-05     -191.583 
          20         1.08 -0.000353048 -2.65261e-05      -191.57 
          20      1.33333 -0.000335122  -1.8542e-05     -191.557 
          20      1.61333 -0.000316206  -1.2251e-05     -191.544 
          20         1.92 -0.000298313 -7.92468e-06     -191.531 
          20      2.25333 -0.000284916 -5.53728e-06     -191.519 
          20      2.61333 -0.000274874 -4.35396e-06     -191.508 
          20            3 -0.000264173 -3.17709e-06     -191.496 
          40            0  -6.2207e-19  -1.6754e-23     -187.058 
          40     0.013333 -0.000239337  3.97475e-09     -187.058 
          40     0.053333 -0.000125439  3.50732e-07     -187.058 
          40         0.12 -4.30425e-05  2.33463e-06     -187.058 
          40     0.213332 -2.35618e-05  7.99967e-06     -187.058 
          40     0.333332 -5.02503e-05  1.85729e-05     -187.058 
          40         0.48 -7.53542e-05  3.35987e-05     -187.057 
          40     0.653331 -7.87935e-05  5.14893e-05     -187.057 
          40     0.853332 -7.87812e-05  7.01054e-05     -187.057 
          40         1.08 -9.53192e-05  8.78732e-05     -187.057 
          40      1.33333 -0.000131806  0.000102973     -187.057 
          40      1.61333 -0.000179118  0.000113548     -187.057 
          40         1.92  -0.00022629   0.00011856     -187.056 
          40      2.25333 -0.000265256  0.000117223     -187.056 
          40      2.61333 -0.000288776  0.000111416     -187.055 
          40            3 -0.000293993  0.000103473     -187.055 
          60            0 -3.04654e-19 -4.40205e-24     -182.895 
          60     0.013333 -0.000248297  3.35799e-08     -182.895 
          60     0.053333 -0.000189092  6.26999e-07     -182.895 
          60         0.12 -0.000164737  2.99193e-06     -182.895 
          60     0.213332 -0.000171973  8.10853e-06     -182.895 
          60     0.333332 -0.000186543  1.58163e-05     -182.895 
          60         0.48 -0.000182691  2.53854e-05     -182.895 
          60     0.653331 -0.000153137  3.63949e-05     -182.895 
          60     0.853332 -0.000114816  4.77439e-05     -182.895 
          60         1.08 -0.000106485   5.6965e-05     -182.894 
          60      1.33333 -0.000131267  6.26651e-05     -182.894 
          60      1.61333 -0.000161201  6.53419e-05     -182.894 
          60         1.92 -0.000188867   6.5199e-05     -182.894 
          60      2.25333 -0.000214021   6.1593e-05     -182.894 
          60      2.61333  -0.00023694  5.54288e-05     -182.894 
          60            3 -0.000254312  4.87273e-05     -182.893 
          80            0            0            0     -178.869 
          80     0.013333 -0.000274908  6.06099e-08     -178.869 
          80     0.053333 -0.000305238  9.04597e-07     -178.869 
          80         0.12 -0.000389133  3.67234e-06     -178.869 
          80     0.213332 -0.000478584  8.39448e-06     -178.869 
          80     0.333332  -0.00053175  1.36801e-05     -178.869 
          80         0.48 -0.000540535  1.82517e-05     -178.869 
          80     0.653331 -0.000517144  2.22681e-05     -178.869 
          80     0.853332 -0.000464366  2.67796e-05     -178.869 
          80         1.08 -0.000399261  3.12806e-05     -178.869 
          80      1.33333 -0.000347842  3.41705e-05     -178.869 
          80      1.61333 -0.000299528  3.51499e-05     -178.869 
          80         1.92  -0.00024643  3.45497e-05     -178.869 
          80      2.25333 -0.000198778  3.25481e-05     -178.868 
          80      2.61333 -0.000164845  2.92163e-05     -178.868 
          80            3 -0.000147074  2.51813e-05     -178.868 
         100            0            0            0     -174.926 
         100     0.013333 -0.000246163  8.60265e-08     -174.926 
         100     0.053333 -0.000223931  1.32681e-06     -174.926 
         100         0.12 -0.000273326   5.9583e-06     -174.926 
         100     0.213332 -0.000380122  1.56212e-05     -174.926 
         100     0.333332 -0.000491031  2.99219e-05     -174.926 
         100         0.48 -0.000558645  4.71671e-05     -174.926 
         100     0.653331 -0.000570382  6.61175e-05     -174.926 
         100     0.853332 -0.000532634  8.62395e-05     -174.926 
         100         1.08 -0.000470676  0.000106141     -174.926 
         100      1.33333 -0.000412798  0.000123532     -174.926 
         100      1.61333 -0.000355155  0.000136703     -174.926 
         100         1.92 -0.000290658  0.000144505     -174.926 
         100      2.25333  -0.00023177  0.000145994     -174.926 
         100      2.61333  -0.00018668  0.000141393     -174.926 
         100            3  -0.00015661  0.000132235     -174.926 
         150            0 -3.19065e-19 -5.79601e-25     -165.262 
         150     0.013333 -0.000321677 -6.06869e-08     -165.262 
         150     0.053333 -0.000459392  -1.0662e-06     -165.262 
         150         0.12  -0.00057701  -5.7962e-06     -165.262 
         150     0.213332 -0.000574945  -1.8089e-05     -165.262 
         150     0.333332 -0.000479711  -3.9902e-05     -165.262 
         150         0.48 -0.000382171 -6.99233e-05     -165.262 
         150     0.653331 -0.000340028 -0.000105204     -165.262 
         150     0.853332 -0.000339166 -0.000142087     -165.262 
         150         1.08 -0.000325711 -0.000176401     -165.262 
         150      1.33333  -0.00028661 -0.000205107     -165.262 
         150      1.61333 -0.000249407 -0.000227214     -165.262 
         150         1.92 -0.000218236 -0.000241135     -165.262 
         150      2.25333 -0.000190568 -0.000244731     -165.262 
         150      2.61333 -0.000169721 -0.000238541     -165.262 
         150            3 -0.000160332 -0.000224035     -165.262 
         200            0            0            0     -155.719 
         200     0.013333 -0.000322622 -1.14124e-07     -155.719 
         200     0.053333 -0.000458105 -1.81031e-06     -155.719 
         200         0.12 -0.000555326 -8.77492e-06     -155.719 
         200     0.213332 -0.000520312 -2.50911e-05     -155.719 
         200     0.333332 -0.000392525 -5.23583e-05     -155.719 
         200         0.48 -0.000268948 -8.91134e-05     -155.719 
         200     0.653331 -0.000214012 -0.000132902     -155.719 
         200     0.853332 -0.000230382 -0.000181218     -155.719 
         200         1.08 -0.000268188 -0.000230298     -155.719 
         200      1.33333 -0.000276636 -0.000275281     -155.719 
         200      1.61333 -0.000261547 -0.000312542     -155.719 
         200         1.92 -0.000245824 -0.000339451     -155.719 
         200      2.25333 -0.000231051 -0.000353047     -155.719 
         200      2.61333  -0.00021752  -0.00035253     -155.719 
         200            3    -0.000209 -0.000339243     -155.719 
         250            0            0            0     -146.217 
         250     0.013333 -0.000241626  7.51081e-08     -146.217 
         250     0.053333 -0.000229581  1.15811e-06     -146.217 
         250         0.12 -0.000302151  5.40927e-06     -146.217 
         250     0.213332 -0.000458617  1.49247e-05     -146.217 
         250     0.333332 -0.000644854   3.0051e-05     -146.217 
         250         0.48 -0.000791856  4.91405e-05     -146.217 
         250     0.653331  -0.00087011  7.00977e-05     -146.217 
         250     0.853332 -0.000882846  9.17264e-05     -146.217 
         250         1.08 -0.000840961  0.000113493     -146.217 
         250      1.33333 -0.000758178  0.000134677     -146.217 
         250      1.61333 -0.000651961   0.00015379     -146.217 
         250         1.92 -0.000532661  0.000168967     -146.217 
         250      2.25333 -0.000406123  0.000178596     -146.217 
         250      2.61333 -0.000286515  0.000181733     -146.217 
         250            3 -0.000191235  0.000178434     -146.217 
         300            0            0            0     -136.729 
         300     0.013333 -0.000176357 -1.62766e-07     -136.729 
         300     0.053333  7.14324e-05 -2.29273e-06     -136.729 
         300         0.12  0.000440865 -9.36091e-06     -136.729 
         300     0.213332  0.000838203  -2.1923e-05     -136.729 
         300     0.333332   0.00113252 -3.69691e-05     -136.729 
         300         0.48    0.0012765 -5.07538e-05     -136.729 
         300     0.653331    0.0013045 -6.20452e-05     -136.729 
         300     0.853332   0.00124656 -7.26776e-05     -136.729 
         300         1.08   0.00109707 -8.51033e-05     -136.729 
         300      1.33333  0.000874102 -9.95679e-05     -136.729 
         300      1.61333   0.00062536 -0.000113614     -136.729 
         300         1.92  0.000363319 -0.000124992     -136.729 
         300      2.25333  9.21094e-05 -0.000133033     -136.729 
         300      2.61333  -0.00016415 -0.000136582     -136.729 
         300            3 -0.000372623 -0.000135455     -136.729 
         350            0           -0           -0     -127.245 
         350     0.013333 -0.000266283 -4.79145e-08     -127.245 
         350     0.053333 -0.000280558 -7.31891e-07     -127.245 
         350         0.12  -0.00029136  -3.3461e-06     -127.245 
         350     0.213332 -0.000275859   -8.915e-06     -127.245 
         350     0.333332 -0.000258176 -1.72369e-05     -127.245 
         350         0.48 -0.000263804 -2.72736e-05     -127.245 
         350     0.653331 -0.000297057 -3.83247e-05     -127.245 
         350     0.853332 -0.000345744 -5.01371e-05     -127.245 
         350         1.08 -0.000385734 -6.18188e-05     -127.245 
         350      1.33333 -0.000391627 -7.16511e-05     -127.245 
         350      1.61333 -0.000369063 -7.86081e-05     -127.245 
         350         1.92 -0.000341482 -8.28352e-05     -127.245 
         350      2.25333 -0.000311451 -8.40177e-05     -127.245 
         350      2.61333 -0.000278596 -8.20379e-05     -127.245 
         350            3 -0.000246894  -7.7132e-05     -127.245 
         400            0            0            0     -117.761 
         400     0.013333 -0.000309986 -1.14403e-07     -117.761 
         400     0.053333 -0.000414658 -1.79828e-06     -117.761 
         400         0.12 -0.000473414 -8.60624e-06     -117.761 
         400     0.213332 -0.000403392 -2.43204e-05     -117.761 
         400     0.333332 -0.000251516 -5.01678e-05     -117.761 
         400         0.48 -0.000118441 -8.43149e-05     -117.761 
         400     0.653331 -6.64512e-05 -0.000124158     -117.761 
         400     0.853332 -9.68583e-05 -0.000167797     -117.761 
         400         1.08 -0.000164382 -0.000212759     -117.761 
         400      1.33333 -0.000206887 -0.000255205     -117.761 
         400      1.61333  -0.00021311  -0.00029212     -117.761 
         400         1.92 -0.000215847 -0.000322003     -117.761 
         400      2.25333 -0.000221762 -0.000342805     -117.761 
         400      2.61333 -0.000228649 -0.000352596     -117.761 
         400            3 -0.000234805 -0.000350479     -117.761 
         450            0            0            0     -108.276 
         450     0.013333 -0.000331724  9.73176e-09     -108.276 
         450     0.053333 -0.000523923 -1.12062e-08     -108.276 
         450         0.12 -0.000756703 -1.06079e-06     -108.276 
         450     0.213332  -0.00089992 -5.85723e-06     -108.276 
         450     0.333332  -0.00091198 -1.72831e-05     -108.276 
         450         0.48 -0.000849433 -3.60139e-05     -108.276 
         450     0.653331 -0.000791834 -6.02606e-05     -108.276 
         450     0.853332 -0.000763791 -8.69921e-05     -108.276 
         450         1.08  -0.00072719 -0.000112636     -108.276 
         450      1.33333 -0.000644217  -0.00013445     -108.276 
         450      1.61333  -0.00053791 -0.000152229     -108.276 
         450         1.92 -0.000438984 -0.000166726     -108.276 
         450      2.25333 -0.000342285 -0.000176832     -108.276 
         450      2.61333  -0.00024819 -0.000181661     -108.276 
         450            3 -0.000166822 -0.000180777     -108.276 
         500            0           -0           -0     -98.7893 
         500     0.013333 -0.000227882  7.27053e-08     -98.7893 
         500     0.053333 -0.000173518  1.07452e-06     -98.7893 
         500         0.12 -0.000172334  4.74851e-06     -98.7893 
         500     0.213332 -0.000229209  1.24234e-05     -98.7893 
         500     0.333332 -0.000316357  2.41611e-05     -98.7893 
         500         0.48 -0.000398037   3.9292e-05     -98.7893 
         500     0.653331 -0.000454691  5.75342e-05     -98.7893 
         500     0.853332 -0.000469881  7.94034e-05     -98.7893 
         500         1.08 -0.000430571  0.000105349     -98.7893 
         500      1.33333 -0.000361375  0.000133808     -98.7893 
         500      1.61333  -0.00031159   0.00016132     -98.7893 
         500         1.92 -0.000282742  0.000185338     -98.7893 
         500      2.25333 -0.000256631  0.000204771     -98.7893 
         500      2.61333  -0.00022997  0.000218191     -98.7893 
         500            3 -0.000207697   0.00022443     -98.7893 
         550            0           -0           -0     -89.3018 
         550     0.013333 -0.000314067  2.45454e-07     -89.3018 
         550     0.053333 -0.000542092  3.62673e-06     -89.3018 
         550         0.12  -0.00102851  1.59318e-05     -89.3018 
         550     0.213332  -0.00166911  4.08324e-05     -89.3018 
         550     0.333332  -0.00223036  7.58606e-05     -89.3018 
         550         0.48  -0.00253195  0.000114217     -89.3018 
         550     0.653331  -0.00257067  0.000150515     -89.3018 
         550     0.853332  -0.00243982  0.000183712     -89.3018 
         550         1.08  -0.00221721  0.000214954     -89.3018 
         550      1.33333  -0.00195491   0.00024387     -89.3018 
         550      1.61333  -0.00168262  0.000268581     -89.3017 
         550         1.92  -0.00138744  0.000287636     -89.3017 
         550      2.25333  -0.00105996  0.000300164     -89.3017 
         550      2.61333 -0.000712891  0.000304793     -89.3017 
         550            3 -0.000375889  0.000300504     -89.3017 
         600            0 -2.88023e-19   1.3156e-26     -79.8106 
         600     0.013333 -0.000227389 -5.18692e-07     -79.8106 
         600     0.053333  4.68628e-06 -7.70724e-06     -79.8106 
         600         0.12  0.000648591 -3.42523e-05     -79.8106 
         600     0.213332   0.00167616 -8.96118e-05     -79.8106 
         600     0.333332   0.00272011  -0.00017193     -79.8106 
         600         0.48   0.00342062 -0.000270656     -79.8106 
         600     0.653331   0.00368337 -0.000376698     -79.8106 
         600     0.853332   0.00358965  -0.00048827     -79.8106 
         600         1.08   0.00322454  -0.00060737     -79.8106 
         600      1.33333   0.00270085 -0.000731249     -79.8106 
         600      1.61333   0.00217171 -0.000850517     -79.8106 
         600         1.92   0.00167519 -0.000955962     -79.8106 
         600      2.25333   0.00115294  -0.00104137     -79.8106 
         600      2.61333  0.000597596  -0.00110089     -79.8107 
         600            3  5.41791e-05   -0.0011294     -79.8107 
         650            0           -0           -0     -70.3207 
         650     0.013333 -0.000234552  3.85019e-07     -70.3207 
         650     0.053333 -0.000285127   5.6747e-06     -70.3207 
         650         0.12 -0.000618547  2.49201e-05     -70.3207 
         650     0.213332    -0.001203  6.43302e-05     -70.3207 
         650     0.333332  -0.00179574  0.000122034     -70.3207 
         650         0.48  -0.00217567  0.000191085     -70.3207 
         650     0.653331  -0.00230036  0.000266944     -70.3207 
         650     0.853332  -0.00220994  0.000350826     -70.3207 
         650         1.08  -0.00192113  0.000446111     -70.3207 
         650      1.33333  -0.00151019  0.000550418     -70.3207 
         650      1.61333  -0.00114924  0.000653357     -70.3207 
         650         1.92 -0.000894627  0.000744981     -70.3207 
         650      2.25333 -0.000660894  0.000820674     -70.3206 
         650      2.61333 -0.000415991  0.000876152     -70.3206 
         650            3 -0.000183387   0.00090715     -70.3206 
         700            0            0            0     -60.8258 
         700     0.013333 -7.63954e-05 -1.62156e-07     -60.8258 
         700     0.053333  0.000431726 -2.15369e-06     -60.8258 
         700         0.12    0.0011047 -7.83051e-06     -60.8258 
         700     0.213332   0.00170111 -1.48243e-05     -60.8258 
         700     0.333332   0.00200539 -1.64919e-05     -60.8258 
         700         0.48   0.00201146  -7.3492e-06     -60.8258 
         700     0.653331     0.001875  1.23566e-05     -60.8258 
         700     0.853332    0.0017184  3.71695e-05     -60.8258 
         700         1.08   0.00152474  5.95899e-05     -60.8258 
         700      1.33333   0.00123765  7.48905e-05     -60.8258 
         700      1.61333  0.000912044  8.48477e-05     -60.8258 
         700         1.92  0.000634009  9.44471e-05     -60.8258 
         700      2.25333  0.000370581  0.000103669     -60.8259 
         700      2.61333  9.81478e-05  0.000111643     -60.8259 
         700            3 -0.000169398   0.00011754     -60.8259 
         750            0            0            0      -51.331 
         750     0.013333 -0.000422552  1.39677e-07      -51.331 
         750     0.053333  -0.00089355  1.84778e-06      -51.331 
         750         0.12  -0.00157018  6.70478e-06      -51.331 
         750     0.213332   -0.0022063  1.27814e-05      -51.331 
         750     0.333332  -0.00259944  1.47056e-05      -51.331 
         750         0.48   -0.0027258  7.93998e-06      -51.331 
         750     0.653331  -0.00270873 -7.85474e-06      -51.331 
         750     0.853332  -0.00265748 -2.90225e-05      -51.331 
         750         1.08  -0.00255929 -4.92735e-05      -51.331 
         750      1.33333  -0.00232932 -6.25293e-05      -51.331 
         750      1.61333  -0.00197789 -6.76483e-05      -51.331 
         750         1.92  -0.00162288 -6.92026e-05      -51.331 
         750      2.25333  -0.00127343 -6.96339e-05      -51.331 
         750      2.61333  -0.00091148 -6.87089e-05      -51.331 
         750            3 -0.000542931 -6.58467e-05      -51.331 
         800            0           -0           -0     -41.8312 
         800     0.013333 -0.000251112  4.84923e-08     -41.8312 
         800     0.053333 -0.000258192   7.8243e-07     -41.8312 
         800         0.12 -0.000347643  3.85506e-06     -41.8312 
         800     0.213332 -0.000513293  1.10825e-05     -41.8312 
         800     0.333332 -0.000693167  2.26972e-05     -41.8312 
         800         0.48 -0.000800862  3.66885e-05     -41.8312 
         800     0.653331 -0.000798719  5.04137e-05     -41.8312 
         800     0.853332 -0.000711049  6.22008e-05     -41.8312 
         800         1.08 -0.000599048   7.0822e-05     -41.8312 
         800      1.33333 -0.000534516   7.4112e-05     -41.8312 
         800      1.61333 -0.000534225  7.11372e-05     -41.8312 
         800         1.92 -0.000525808  6.44273e-05     -41.8312 
         800      2.25333 -0.000486997  5.60876e-05     -41.8312 
         800      2.61333 -0.000429487  4.67989e-05     -41.8312 
         800            3 -0.000366561  3.64189e-05     -41.8312 
         850            0           -0           -0     -32.3287 
         850     0.013333 -0.000425666 -1.57422e-07     -32.3287 
         850     0.053333 -0.000813916 -2.54796e-06     -32.3287 
         850         0.12  -0.00116768 -1.27696e-05     -32.3287 
         850     0.213332  -0.00123462  -3.8244e-05     -32.3287 
         850     0.333332 -0.000995608 -8.39931e-05     -32.3287 
         850         0.48 -0.000630921 -0.000149655     -32.3287 
         850     0.653331 -0.000342685 -0.000231111     -32.3287 
         850     0.853332 -0.000228597 -0.000324146     -32.3287 
         850         1.08 -0.000273817 -0.000425147     -32.3287 
         850      1.33333 -0.000369937 -0.000528565     -32.3287 
         850      1.61333 -0.000396471 -0.000627263     -32.3287 
         850         1.92 -0.000353605 -0.000717077     -32.3287 
         850      2.25333 -0.000303205 -0.000795546     -32.3287 
         850      2.61333 -0.000262994 -0.000859187     -32.3287 
         850            3 -0.000223611 -0.000903541     -32.3287 
         900            0 -2.99351e-19  1.92159e-26     -22.8226 
         900     0.013333 -0.000270348 -6.95634e-08     -22.8226 
         900     0.053333 -0.000277116 -1.08119e-06     -22.8226 
         900         0.12 -0.000226039 -5.20542e-06     -22.8226 
         900     0.213332 -4.57231e-05 -1.52567e-05     -22.8226 
         900     0.333332  0.000249435  -3.3451e-05     -22.8226 
         900         0.48  0.000575531 -6.00003e-05     -22.8226 
         900     0.653331  0.000843252 -9.26716e-05     -22.8226 
         900     0.853332   0.00102173 -0.000128101     -22.8226 
         900         1.08   0.00112472 -0.000164217     -22.8226 
         900      1.33333   0.00114075 -0.000201984     -22.8226 
         900      1.61333   0.00103906 -0.000243577     -22.8226 
         900         1.92  0.000865536  -0.00028806     -22.8226 
         900      2.25333  0.000678673 -0.000330465     -22.8226 
         900      2.61333  0.000487347 -0.000368122     -22.8226 
         900            3  0.000280619 -0.000399158     -22.8226 
         950            0           -0           -0     -13.3132 
         950     0.013333  -4.9847e-05 -4.61644e-07     -13.3132 
         950     0.053333  0.000648039  -6.7847e-06     -13.3132 
         950         0.12   0.00187249  -2.9564e-05     -13.3132 
         950     0.213332    0.0034024 -7.51507e-05     -13.3132 
         950     0.333332   0.00473642 -0.000138437     -13.3132 
         950         0.48   0.00548283 -0.000206305     -13.3132 
         950     0.653331   0.00562138 -0.000268625     -13.3132 
         950     0.853332   0.00535878 -0.000324853     -13.3132 
         950         1.08   0.00485866 -0.000380772     -13.3132 
         950      1.33333   0.00422046 -0.000439239     -13.3132 
         950      1.61333   0.00357442  -0.00049588     -13.3132 
         950         1.92   0.00298848 -0.000545096     -13.3132 
         950      2.25333   0.00238687 -0.000584737     -13.3132 
         950      2.61333   0.00172556 -0.000613981     -13.3132 
         950            3   0.00102123 -0.000630986     -13.3133 
        1000            0           -0           -0     -3.80392 
        1000     0.013333  0.000387033  3.94727e-07     -3.80392 
        1000     0.053333   0.00194144  6.57985e-06     -3.80392 
        1000         0.12   0.00345803  3.39621e-05     -3.80392 
        1000     0.213332   0.00407238   0.00010471     -3.80392 
        1000     0.333332   0.00357834  0.000235825     -3.80392 
        1000         0.48   0.00251405  0.000428086     -3.80392 
        1000     0.653331   0.00160934  0.000668821     -3.80392 
        1000     0.853332   0.00125339  0.000941865     -3.80392 
        1000         1.08     0.001389   0.00123294     -3.80391 
        1000      1.33333   0.00165298   0.00152575     -3.80391 
        1000      1.61333   0.00167585   0.00180162     -3.80392 
        1000         1.92   0.00143734   0.00205006     -3.80392 
        1000      2.25333   0.00115338    0.0022676     -3.80393 
        1000      2.61333  0.000895096   0.00244619     -3.80394 
        1000            3  0.000627606   0.00257395     -3.80396 
