Variables = x, y, u, v, p

Zone, I=416, F=POINT
         -50            0            0            0     -23.4497 
         -50     0.013333  0.000179504   1.4893e-08     -23.4497 
         -50     0.053333  0.000177402  4.89567e-08     -23.4497 
         -50         0.12  0.000184943 -1.78191e-09     -23.4497 
         -50     0.213332  0.000190703 -7.59985e-08     -23.4497 
         -50     0.333332  0.000187166  1.25101e-07     -23.4497 
         -50         0.48  0.000178552  1.25569e-06     -23.4496 
         -50     0.653331  0.000170097  3.81502e-06     -23.4496 
         -50     0.853332  0.000164482  5.49142e-06     -23.4495 
         -50         1.08  0.000163208  7.70748e-06     -23.4493 
         -50      1.33333  0.000163215  1.00508e-05     -23.4491 
         -50      1.61333   0.00016341  1.22532e-05     -23.4487 
         -50         1.92  0.000163377  1.36117e-05     -23.4483 
         -50      2.25333    0.0001606  1.46376e-05     -23.4478 
         -50      2.61333  0.000157498  1.48102e-05     -23.4471 
         -50            3  0.000157572  1.41887e-05     -23.4463 
         -25            0           -0           -0     -22.5141 
         -25     0.013333  0.000125689  1.28267e-08     -22.5141 
         -25     0.053333  0.000107671  1.30619e-07     -22.5141 
         -25         0.12   9.0529e-05  4.18704e-07     -22.5141 
         -25     0.213332  7.54266e-05  8.34575e-07     -22.5141 
         -25     0.333332  6.18895e-05  1.20693e-06     -22.5141 
         -25         0.48  4.98009e-05  1.39211e-06     -22.5141 
         -25     0.653331  4.05117e-05  1.63329e-06      -22.514 
         -25     0.853332  3.84933e-05  2.01612e-06      -22.514 
         -25         1.08  4.60842e-05  2.54095e-06     -22.5139 
         -25      1.33333   6.1637e-05  3.01157e-06     -22.5138 
         -25      1.61333   8.1654e-05  3.54495e-06     -22.5137 
         -25         1.92  0.000101236  4.06536e-06     -22.5135 
         -25      2.25333  0.000124612  5.32346e-06     -22.5133 
         -25      2.61333  0.000147016  6.92028e-06     -22.5131 
         -25            3   0.00015879   8.1834e-06     -22.5128 
           0            0            0            0     -21.7466 
           0     0.013333  0.000420626 -0.000218709     -21.7472 
           0     0.053333  0.000221282 -0.000119756     -21.7486 
           0         0.12  0.000150674 -7.37814e-05     -21.7501 
           0     0.213332  0.000110335 -5.59477e-05     -21.7517 
           0     0.333332  8.31022e-05  -4.3005e-05     -21.7534 
           0         0.48   6.6463e-05 -3.23278e-05      -21.755 
           0     0.653331   5.9336e-05 -2.33094e-05     -21.7566 
           0     0.853332  5.96136e-05 -1.54857e-05     -21.7582 
           0         1.08   6.4292e-05 -8.75846e-06     -21.7597 
           0      1.33333  7.10645e-05 -3.22647e-06     -21.7612 
           0      1.61333  7.94924e-05  9.93099e-07     -21.7626 
           0         1.92   8.9469e-05  3.88556e-06     -21.7639 
           0      2.25333  0.000102474  5.90958e-06     -21.7651 
           0      2.61333  0.000115694  6.64421e-06     -21.7663 
           0            3  0.000120426  5.72173e-06     -21.7673 
          20            0            0            0     -21.3095 
          20     0.013333    0.0016437   0.00114945     -21.3091 
          20     0.053333   0.00185362   0.00132191     -21.3077 
          20         0.12   0.00140035  0.000998982     -21.3062 
          20     0.213332  0.000917491  0.000730171     -21.3047 
          20     0.333332  0.000543036  0.000559068     -21.3031 
          20         0.48  0.000284582  0.000456874     -21.3015 
          20     0.653331  0.000155305  0.000404171        -21.3 
          20     0.853332  0.000115807  0.000383228     -21.2984 
          20         1.08  9.55023e-05  0.000376731     -21.2969 
          20      1.33333  6.84192e-05  0.000373006     -21.2955 
          20      1.61333  3.97996e-05  0.000365246     -21.2941 
          20         1.92  1.42226e-05  0.000349295     -21.2927 
          20      2.25333 -4.48178e-06  0.000324012     -21.2914 
          20      2.61333  -1.4979e-05   0.00029078     -21.2901 
          20            3 -2.17526e-05  0.000253006     -21.2888 
          40            0   2.1168e-19 -1.09219e-24     -20.7963 
          40     0.013333  0.000119341  4.62806e-08     -20.7963 
          40     0.053333  0.000166195  6.86025e-07     -20.7963 
          40         0.12  0.000202398  3.08749e-06     -20.7963 
          40     0.213332  0.000204999  8.32197e-06     -20.7963 
          40     0.333332  0.000182738  1.68398e-05     -20.7963 
          40         0.48  0.000158635  2.86632e-05     -20.7963 
          40     0.653331  0.000151072  4.38254e-05     -20.7963 
          40     0.853332  0.000161767  6.18614e-05     -20.7963 
          40         1.08  0.000172799  8.08284e-05     -20.7963 
          40      1.33333  0.000168042  9.75568e-05     -20.7962 
          40      1.61333  0.000147104  0.000109247     -20.7962 
          40         1.92  0.000121444   0.00011521     -20.7962 
          40      2.25333  9.80935e-05  0.000114141     -20.7961 
          40      2.61333  8.28342e-05  0.000108322     -20.7961 
          40            3  7.99648e-05  0.000101291      -20.796 
          60            0  1.11111e-19 -2.97241e-25     -20.3343 
          60     0.013333   0.00014382 -7.31872e-08     -20.3343 
          60     0.053333  0.000286435 -9.33407e-07     -20.3343 
          60         0.12  0.000473007 -3.08929e-06     -20.3343 
          60     0.213332  0.000611937 -4.79287e-06     -20.3343 
          60     0.333332  0.000654817 -2.87573e-06     -20.3343 
          60         0.48  0.000635602  4.08754e-06     -20.3343 
          60     0.653331    0.0005986  1.42983e-05     -20.3343 
          60     0.853332   0.00053843  2.41382e-05     -20.3343 
          60         1.08  0.000449786  3.23998e-05     -20.3343 
          60      1.33333  0.000353746  3.98229e-05     -20.3343 
          60      1.61333   0.00025182  4.64818e-05     -20.3343 
          60         1.92  0.000147376  5.13044e-05     -20.3343 
          60      2.25333  5.72384e-05  5.38908e-05     -20.3343 
          60      2.61333 -5.53165e-06  5.42788e-05     -20.3342 
          60            3 -3.91853e-05   5.1239e-05     -20.3342 
          80            0            0            0     -19.8878 
          80     0.013333    0.0001356   -1.053e-07     -19.8878 
          80     0.053333  0.000271557 -1.40287e-06     -19.8878 
          80         0.12  0.000471484 -5.19169e-06     -19.8878 
          80     0.213332  0.000653286 -1.05565e-05     -19.8878 
          80     0.333332  0.000756476 -1.48283e-05     -19.8878 
          80         0.48  0.000790069 -1.64582e-05     -19.8878 
          80     0.653331  0.000776433 -1.67844e-05     -19.8878 
          80     0.853332  0.000693876 -1.95195e-05     -19.8878 
          80         1.08  0.000541705 -2.60013e-05     -19.8878 
          80      1.33333    0.0003935 -3.33264e-05     -19.8878 
          80      1.61333  0.000272047   -3.861e-05     -19.8878 
          80         1.92  0.000152522 -4.19443e-05     -19.8877 
          80      2.25333  4.73116e-05 -4.35608e-05     -19.8877 
          80      2.61333 -2.77203e-05 -4.28445e-05     -19.8877 
          80            3  -6.6705e-05 -4.06645e-05     -19.8877 
         100            0            0            0     -19.4507 
         100     0.013333  7.91212e-05 -5.62254e-08     -19.4507 
         100     0.053333  6.77562e-05 -8.20656e-07     -19.4507 
         100         0.12  8.91923e-05 -3.56257e-06     -19.4507 
         100     0.213332  0.000144578 -9.16989e-06     -19.4507 
         100     0.333332  0.000209407 -1.76232e-05     -19.4507 
         100         0.48  0.000259584 -2.84097e-05     -19.4507 
         100     0.653331  0.000279759 -4.12917e-05     -19.4507 
         100     0.853332  0.000259802 -5.65143e-05     -19.4507 
         100         1.08  0.000213194 -7.33371e-05     -19.4507 
         100      1.33333  0.000176618 -8.92613e-05     -19.4507 
         100      1.61333  0.000149788 -0.000102176     -19.4507 
         100         1.92  0.000118986 -0.000111189     -19.4507 
         100      2.25333  9.34892e-05 -0.000115248     -19.4507 
         100      2.61333  7.51376e-05 -0.000114447     -19.4507 
         100            3   6.1094e-05 -0.000109546     -19.4507 
         150            0  8.12294e-20 -3.73689e-26     -18.3794 
         150     0.013333  6.91739e-05  1.23363e-08     -18.3794 
         150     0.053333  2.02756e-05  1.69308e-07     -18.3794 
         150         0.12 -3.90449e-05  6.38149e-07     -18.3794 
         150     0.213332 -8.70763e-05  1.20732e-06     -18.3794 
         150     0.333332 -0.000106631  1.14428e-06     -18.3794 
         150         0.48 -9.84484e-05 -3.09474e-07     -18.3794 
         150     0.653331 -7.80901e-05  -3.4443e-06     -18.3794 
         150     0.853332 -5.98562e-05 -8.15514e-06     -18.3794 
         150         1.08 -4.50956e-05 -1.40543e-05     -18.3794 
         150      1.33333 -2.30381e-05  -2.0164e-05     -18.3794 
         150      1.61333  8.61262e-06 -2.56519e-05     -18.3794 
         150         1.92  4.37874e-05 -3.01359e-05     -18.3794 
         150      2.25333  8.00543e-05 -3.31996e-05     -18.3794 
         150      2.61333  0.000110144 -3.48712e-05     -18.3794 
         150            3  0.000126292 -3.53191e-05     -18.3794 
         200            0            0            0     -17.3217 
         200     0.013333  3.11546e-05  2.07798e-08     -17.3217 
         200     0.053333 -0.000110594  1.72034e-07     -17.3217 
         200         0.12 -0.000266175 -7.69241e-08     -17.3217 
         200     0.213332  -0.00036593 -2.56363e-06     -17.3217 
         200     0.333332 -0.000394579 -9.09713e-06     -17.3217 
         200         0.48 -0.000390455 -1.97645e-05     -17.3217 
         200     0.653331 -0.000387472 -3.29505e-05     -17.3217 
         200     0.853332  -0.00037403 -4.59355e-05     -17.3217 
         200         1.08 -0.000317214 -5.61771e-05     -17.3217 
         200      1.33333 -0.000225922 -6.30101e-05     -17.3217 
         200      1.61333 -0.000132514  -6.7488e-05     -17.3217 
         200         1.92 -3.95589e-05  -6.9667e-05     -17.3217 
         200      2.25333  4.97017e-05 -6.89346e-05     -17.3217 
         200      2.61333  0.000125971 -6.55598e-05     -17.3216 
         200            3  0.000179965 -5.98293e-05     -17.3216 
         250            0            0            0     -16.2679 
         250     0.013333  0.000117449 -1.95055e-07     -16.2679 
         250     0.053333  0.000246919 -2.81259e-06     -16.2679 
         250         0.12  0.000512021 -1.18744e-05     -16.2679 
         250     0.213332  0.000835212 -2.89526e-05     -16.2679 
         250     0.333332   0.00107828 -5.11834e-05     -16.2679 
         250         0.48   0.00117664 -7.43686e-05     -16.2679 
         250     0.653331   0.00115556  -9.7023e-05     -16.2679 
         250     0.853332   0.00104845  -0.00012049     -16.2679 
         250         1.08  0.000882191 -0.000145086     -16.2679 
         250      1.33333  0.000706394 -0.000168165     -16.2679 
         250      1.61333  0.000541458 -0.000186577     -16.2679 
         250         1.92  0.000368673  -0.00019899     -16.2679 
         250      2.25333  0.000195493 -0.000204371     -16.2679 
         250      2.61333  3.95842e-05 -0.000202065     -16.2679 
         250            3 -8.18481e-05 -0.000192847      -16.268 
         300            0            0            0      -15.216 
         300     0.013333  3.04609e-05 -1.73902e-07      -15.216 
         300     0.053333 -6.32322e-05 -2.64397e-06      -15.216 
         300         0.12 -4.99703e-05 -1.21334e-05      -15.216 
         300     0.213332  0.000121642 -3.29512e-05      -15.216 
         300     0.333332  0.000368304  -6.5879e-05      -15.216 
         300         0.48   0.00057137 -0.000108393      -15.216 
         300     0.653331  0.000669351  -0.00015768      -15.216 
         300     0.853332  0.000654318 -0.000212384      -15.216 
         300         1.08  0.000555151 -0.000270726      -15.216 
         300      1.33333  0.000441161 -0.000328094      -15.216 
         300      1.61333  0.000353986 -0.000378807      -15.216 
         300         1.92  0.000269573 -0.000419044      -15.216 
         300      2.25333  0.000182385 -0.000445496      -15.216 
         300      2.61333  0.000100569 -0.000455761      -15.216 
         300            3  3.41949e-05 -0.000449498      -15.216 
         350            0           -0           -0     -14.1644 
         350     0.013333  9.44513e-05  2.36826e-07     -14.1644 
         350     0.053333  4.55844e-05  3.55446e-06     -14.1644 
         350         0.12 -0.000181787  1.60168e-05     -14.1644 
         350     0.213332 -0.000593829  4.25461e-05     -14.1644 
         350     0.333332  -0.00103965   8.2881e-05     -14.1644 
         350         0.48  -0.00135716  0.000132381     -14.1644 
         350     0.653331   -0.0014924  0.000186569     -14.1644 
         350     0.853332   -0.0014667  0.000243775     -14.1644 
         350         1.08   -0.0013178  0.000303289     -14.1644 
         350      1.33333  -0.00110217   0.00036239     -14.1644 
         350      1.61333 -0.000869854  0.000416395     -14.1644 
         350         1.92 -0.000623019  0.000460975     -14.1644 
         350      2.25333 -0.000360008  0.000492219     -14.1644 
         350      2.61333  -9.9667e-05  0.000507299     -14.1644 
         350            3  0.000127274  0.000505235     -14.1644 
         400            0            0            0     -13.1112 
         400     0.013333   0.00016106 -1.70078e-07     -13.1112 
         400     0.053333  0.000399148 -2.38138e-06     -13.1112 
         400         0.12  0.000787335 -9.65025e-06     -13.1112 
         400     0.213332    0.0012121 -2.24775e-05     -13.1112 
         400     0.333332   0.00153491 -3.79035e-05     -13.1112 
         400         0.48   0.00170619 -5.24376e-05     -13.1112 
         400     0.653331    0.0017622 -6.51453e-05     -13.1112 
         400     0.853332   0.00173144 -7.82065e-05     -13.1112 
         400         1.08   0.00159339 -9.50436e-05     -13.1112 
         400      1.33333   0.00135314 -0.000116633     -13.1112 
         400      1.61333   0.00108004 -0.000139715     -13.1112 
         400         1.92  0.000806497 -0.000160539     -13.1112 
         400      2.25333   0.00052237 -0.000177611     -13.1112 
         400      2.61333    0.0002399  -0.00018941     -13.1112 
         400            3 -8.88408e-06 -0.000195038     -13.1112 
         450            0            0            0     -12.0586 
         450     0.013333  0.000136783  1.92848e-09     -12.0586 
         450     0.053333  0.000264419  1.18093e-07     -12.0586 
         450         0.12  0.000405224  1.14312e-06     -12.0586 
         450     0.213332  0.000478076  5.02776e-06     -12.0586 
         450     0.333332  0.000452157  1.39691e-05     -12.0586 
         450         0.48  0.000367823  2.87096e-05     -12.0586 
         450     0.653331  0.000285332  4.80517e-05     -12.0586 
         450     0.853332  0.000229814   6.9827e-05     -12.0586 
         450         1.08  0.000189891  9.20962e-05     -12.0586 
         450      1.33333   0.00015578  0.000113973     -12.0586 
         450      1.61333  0.000130161  0.000135196     -12.0586 
         450         1.92  0.000105834  0.000154638     -12.0586 
         450      2.25333  8.04789e-05  0.000170649     -12.0586 
         450      2.61333  5.64724e-05  0.000181857     -12.0586 
         450            3  3.65983e-05  0.000187353     -12.0586 
         500            0           -0           -0     -11.0051 
         500     0.013333   6.3425e-05 -1.02048e-07     -11.0051 
         500     0.053333  3.30234e-05 -1.52694e-06     -11.0051 
         500         0.12  6.57957e-05 -6.83384e-06     -11.0051 
         500     0.213332  0.000171421  -1.7967e-05     -11.0051 
         500     0.333332  0.000291439 -3.46277e-05     -11.0051 
         500         0.48   0.00036599 -5.49961e-05     -11.0051 
         500     0.653331   0.00037749 -7.78795e-05     -11.0051 
         500     0.853332  0.000331315  -0.00010346     -11.0051 
         500         1.08  0.000243315  -0.00013165     -11.0051 
         500      1.33333  0.000159523 -0.000160062     -11.0051 
         500      1.61333  0.000117726 -0.000185333     -11.0051 
         500         1.92  9.42486e-05 -0.000206054     -11.0051 
         500      2.25333  7.11546e-05 -0.000221322     -11.0051 
         500      2.61333  4.81576e-05 -0.000230041     -11.0051 
         500            3  3.05124e-05 -0.000231404     -11.0051 
         550            0           -0           -0     -9.95121 
         550     0.013333  1.33378e-05 -2.35597e-08     -9.95121 
         550     0.053333 -0.000163496 -4.63741e-07     -9.95121 
         550         0.12 -0.000337027 -2.81052e-06     -9.95121 
         550     0.213332 -0.000411655 -9.69888e-06     -9.95121 
         550     0.333332 -0.000369747 -2.33826e-05     -9.95121 
         550         0.48 -0.000273115  -4.4083e-05     -9.95121 
         550     0.653331 -0.000195621 -7.02103e-05     -9.95121 
         550     0.853332 -0.000166428 -9.95756e-05     -9.95121 
         550         1.08 -0.000160979 -0.000129621     -9.95121 
         550      1.33333 -0.000133516 -0.000157541     -9.95121 
         550      1.61333 -7.82775e-05 -0.000181865     -9.95121 
         550         1.92 -2.58653e-05  -0.00020263      -9.9512 
         550      2.25333  2.15749e-05  -0.00021894      -9.9512 
         550      2.61333  6.71463e-05 -0.000229495      -9.9512 
         550            3  0.000109169 -0.000233195     -9.95119 
         600            0  1.23052e-19  4.81369e-27     -8.89603 
         600     0.013333  0.000190641 -8.08685e-08     -8.89603 
         600     0.053333  0.000489287 -1.11867e-06     -8.89603 
         600         0.12  0.000916931 -4.37418e-06     -8.89603 
         600     0.213332    0.0013313 -9.30433e-06     -8.89603 
         600     0.333332   0.00158722 -1.26925e-05     -8.89603 
         600         0.48   0.00163792 -1.05494e-05     -8.89602 
         600     0.653331   0.00154738 -8.40348e-07     -8.89602 
         600     0.853332   0.00141011  1.59083e-05     -8.89602 
         600         1.08   0.00127963   3.7884e-05     -8.89602 
         600      1.33333   0.00115418  6.29295e-05     -8.89603 
         600      1.61333   0.00100422  8.86089e-05     -8.89603 
         600         1.92  0.000820628  0.000112966     -8.89603 
         600      2.25333  0.000614528  0.000135139     -8.89604 
         600      2.61333  0.000397001   0.00015371     -8.89605 
         600            3  0.000182144  0.000167411     -8.89607 
         650            0           -0           -0     -7.84208 
         650     0.013333  3.74691e-05  4.81609e-07     -7.84208 
         650     0.053333 -0.000241007  7.17792e-06     -7.84208 
         650         0.12 -0.000953479  3.20343e-05     -7.84208 
         650     0.213332  -0.00204392  8.41331e-05     -7.84208 
         650     0.333332  -0.00313574  0.000161674     -7.84208 
         650         0.48  -0.00385535  0.000253895     -7.84208 
         650     0.653331  -0.00410622   0.00035087     -7.84208 
         650     0.853332  -0.00399217  0.000449771     -7.84208 
         650         1.08  -0.00362974  0.000552067     -7.84208 
         650      1.33333  -0.00313256  0.000655946     -7.84208 
         650      1.61333  -0.00261999  0.000754718     -7.84208 
         650         1.92  -0.00211448   0.00084175     -7.84207 
         650      2.25333  -0.00156999  0.000912234     -7.84205 
         650      2.61333 -0.000983048  0.000961506     -7.84202 
         650            3 -0.000395363  0.000985081     -7.84199 
         700            0            0            0     -6.78451 
         700     0.013333 -0.000119176 -4.90856e-07     -6.78451 
         700     0.053333 -0.000503405  -7.5162e-06     -6.78451 
         700         0.12 -0.000592304 -3.49353e-05     -6.78451 
         700     0.213332 -0.000141063 -9.65159e-05     -6.78451 
         700     0.333332  0.000650154 -0.000196507     -6.78451 
         700         0.48   0.00137737 -0.000328361     -6.78451 
         700     0.653331    0.0017814 -0.000482867     -6.78451 
         700     0.853332   0.00181179 -0.000655349     -6.78451 
         700         1.08   0.00152807 -0.000843776     -6.78451 
         700      1.33333   0.00111014  -0.00104029     -6.78451 
         700      1.61333  0.000794362  -0.00122987     -6.78451 
         700         1.92  0.000617704  -0.00139988     -6.78452 
         700      2.25333  0.000463939  -0.00154301     -6.78452 
         700      2.61333   0.00029165    -0.001651     -6.78453 
         700            3  0.000123123  -0.00171539     -6.78455 
         750            0            0            0     -5.72772 
         750     0.013333  0.000152986  1.52668e-07     -5.72772 
         750     0.053333  0.000288188   2.3014e-06     -5.72772 
         750         0.12  0.000367447  1.04158e-05     -5.72772 
         750     0.213332  0.000332774  2.77549e-05     -5.72772 
         750     0.333332  0.000245242  5.42625e-05     -5.72772 
         750         0.48  0.000194321  8.74254e-05     -5.72772 
         750     0.653331  0.000213195  0.000125662     -5.72772 
         750     0.853332  0.000303709  0.000169982     -5.72772 
         750         1.08  0.000468583  0.000221799     -5.72772 
         750      1.33333  0.000648354  0.000278229     -5.72772 
         750      1.61333  0.000718411  0.000331415     -5.72772 
         750         1.92  0.000663463  0.000375664     -5.72771 
         750      2.25333  0.000572883   0.00041063     -5.72771 
         750      2.61333   0.00048026  0.000435222     -5.72771 
         750            3  0.000376857  0.000447581     -5.72771 
         800            0           -0           -0     -4.66885 
         800     0.013333  0.000227033 -1.69392e-07     -4.66885 
         800     0.053333  0.000646421 -2.35833e-06     -4.66885 
         800         0.12   0.00127797 -9.38444e-06     -4.66885 
         800     0.213332   0.00192339 -2.08888e-05     -4.66885 
         800     0.333332   0.00235841 -3.20175e-05     -4.66885 
         800         0.48   0.00250613 -3.71233e-05     -4.66885 
         800     0.653331   0.00245873 -3.43784e-05     -4.66885 
         800     0.853332    0.0023329 -2.67247e-05     -4.66885 
         800         1.08   0.00214899 -1.96838e-05     -4.66885 
         800      1.33333   0.00187764 -1.70437e-05     -4.66885 
         800      1.61333   0.00156185 -1.76212e-05     -4.66885 
         800         1.92   0.00127658 -1.70783e-05     -4.66886 
         800      2.25333  0.000994277 -1.50745e-05     -4.66887 
         800      2.61333  0.000692334 -1.19207e-05     -4.66889 
         800            3  0.000381519 -7.85877e-06     -4.66891 
         850            0           -0           -0     -3.61017 
         850     0.013333  0.000134948  1.49517e-07     -3.61017 
         850     0.053333  0.000218008  2.25471e-06     -3.61017 
         850         0.12  0.000210236  1.02946e-05     -3.61017 
         850     0.213332  4.23436e-05  2.80534e-05     -3.61017 
         850     0.333332 -0.000233844  5.67865e-05     -3.61017 
         850         0.48 -0.000508128  9.50525e-05     -3.61017 
         850     0.653331 -0.000705452  0.000140595     -3.61017 
         850     0.853332 -0.000802725  0.000192297     -3.61017 
         850         1.08 -0.000788028  0.000250671     -3.61017 
         850      1.33333 -0.000661697  0.000315834     -3.61017 
         850      1.61333 -0.000489057  0.000384313     -3.61017 
         850         1.92 -0.000362724  0.000449909     -3.61017 
         850      2.25333 -0.000263027  0.000508294     -3.61017 
         850      2.61333 -0.000161174  0.000556657     -3.61016 
         850            3 -5.39123e-05   0.00059244     -3.61016 
         900            0  9.15758e-20  1.48297e-25     -2.54969 
         900     0.013333  9.49625e-05  1.73958e-07     -2.54969 
         900     0.053333  5.65214e-05  2.65531e-06     -2.54969 
         900         0.12 -0.000153164  1.23365e-05     -2.54969 
         900     0.213332  -0.00057896  3.41085e-05     -2.54969 
         900     0.333332  -0.00110481  6.93521e-05     -2.54969 
         900         0.48  -0.00154207  0.000114957     -2.54969 
         900     0.653331  -0.00177837  0.000166055     -2.54969 
         900     0.853332  -0.00181831  0.000219343     -2.54969 
         900         1.08  -0.00172337  0.000273578     -2.54969 
         900      1.33333  -0.00156316  0.000327526     -2.54969 
         900      1.61333   -0.0013869  0.000379257     -2.54969 
         900         1.92  -0.00119528  0.000427473     -2.54969 
         900      2.25333 -0.000977583  0.000470335     -2.54968 
         900      2.61333 -0.000733185  0.000505565     -2.54968 
         900            3 -0.000470662  0.000530527     -2.54967 
         950            0           -0           -0     -1.48855 
         950     0.013333 -0.000125886  1.40234e-07     -1.48855 
         950     0.053333 -0.000731747  1.93714e-06     -1.48855 
         950         0.12  -0.00160167  7.58358e-06     -1.48855 
         950     0.213332  -0.00249002  1.64183e-05     -1.48855 
         950     0.333332  -0.00313499  2.37606e-05     -1.48855 
         950         0.48  -0.00342486  2.37601e-05     -1.48855 
         950     0.653331  -0.00344044  1.31756e-05     -1.48855 
         950     0.853332  -0.00333587 -7.36591e-06     -1.48855 
         950         1.08  -0.00319592 -3.40956e-05     -1.48856 
         950      1.33333  -0.00299143 -6.16222e-05     -1.48856 
         950      1.61333   -0.0026703 -8.55444e-05     -1.48855 
         950         1.92  -0.00226839  -0.00010552     -1.48855 
         950      2.25333  -0.00183468 -0.000123291     -1.48854 
         950      2.61333  -0.00137407 -0.000138714     -1.48852 
         950            3 -0.000881823 -0.000150708      -1.4885 
        1000            0           -0           -0    -0.426458 
        1000     0.013333 -0.000274181  5.72646e-08    -0.426458 
        1000     0.053333  -0.00124757  4.31986e-07    -0.426458 
        1000         0.12  -0.00250434 -3.38345e-07    -0.426459 
        1000     0.213332  -0.00357765 -8.54498e-06    -0.426459 
        1000     0.333332  -0.00410281 -3.41677e-05    -0.426459 
        1000         0.48  -0.00405302 -8.49599e-05     -0.42646 
        1000     0.653331  -0.00369802 -0.000161278    -0.426461 
        1000     0.853332   -0.0033249 -0.000256411    -0.426462 
        1000         1.08  -0.00303172 -0.000361447    -0.426462 
        1000      1.33333  -0.00276423 -0.000469235    -0.426461 
        1000      1.61333  -0.00246346 -0.000575475    -0.426458 
        1000         1.92  -0.00211523 -0.000677151     -0.42645 
        1000      2.25333  -0.00172624 -0.000771289    -0.426437 
        1000      2.61333  -0.00130059 -0.000853182    -0.426418 
        1000            3 -0.000845421 -0.000917898     -0.42639 
