Variables = x, y, u, v, p

Zone, I=416, F=POINT
         -50            0  1.02631e-19  6.42904e-24      17.7279 
         -50     0.013333  9.99164e-05  1.20292e-08      17.7279 
         -50     0.053333  0.000110611 -2.22603e-08      17.7279 
         -50         0.12  0.000129731 -1.04422e-07      17.7279 
         -50     0.213332  0.000145697  2.77196e-08      17.7279 
         -50     0.333332  0.000152643  6.08222e-07      17.7279 
         -50         0.48  0.000153301  1.95704e-06      17.7279 
         -50     0.653331    0.0001507  3.30131e-06      17.7278 
         -50     0.853332  0.000141923  5.23074e-06      17.7277 
         -50         1.08  0.000127467  6.31664e-06      17.7276 
         -50      1.33333  0.000111107  7.48951e-06      17.7274 
         -50      1.61333  9.22487e-05    8.061e-06      17.7272 
         -50         1.92  6.89929e-05  7.38439e-06      17.7268 
         -50      2.25333  4.95361e-05  6.73079e-06      17.7264 
         -50      2.61333  4.00244e-05  7.59706e-06      17.7259 
         -50            3  3.98186e-05  8.61099e-06      17.7253 
         -25            0           -0           -0        17.02 
         -25     0.013333  6.80825e-05  7.79555e-09        17.02 
         -25     0.053333  6.35464e-05  1.95134e-08        17.02 
         -25         0.12  6.46734e-05  5.85809e-09        17.02 
         -25     0.213332  7.15106e-05 -8.72658e-08        17.02 
         -25     0.333332  8.16738e-05 -3.11733e-07        17.02 
         -25         0.48  9.13977e-05    -7.09e-07        17.02 
         -25     0.653331  9.68208e-05 -1.35848e-06      17.0199 
         -25     0.853332  9.59617e-05 -2.19081e-06      17.0199 
         -25         1.08  9.11002e-05 -3.16702e-06      17.0199 
         -25      1.33333  8.63726e-05  -3.9713e-06      17.0198 
         -25      1.61333  8.34147e-05 -4.81141e-06      17.0197 
         -25         1.92  7.61028e-05 -4.88846e-06      17.0196 
         -25      2.25333  6.72393e-05 -5.76496e-06      17.0194 
         -25      2.61333  5.91459e-05 -6.70192e-06      17.0192 
         -25            3  5.29668e-05 -5.88099e-06       17.019 
           0            0            0            0      16.4378 
           0     0.013333  0.000209136 -0.000119297      16.4384 
           0     0.053333  9.64569e-05 -6.60244e-05      16.4395 
           0         0.12  4.04684e-05 -4.23078e-05      16.4409 
           0     0.213332  7.27459e-06 -3.19443e-05      16.4423 
           0     0.333332 -1.04929e-05 -2.51089e-05      16.4437 
           0         0.48 -1.91059e-05  -2.0183e-05      16.4452 
           0     0.653331  -2.1529e-05 -1.65981e-05      16.4467 
           0     0.853332 -1.68173e-05 -1.38002e-05      16.4482 
           0         1.08 -4.61623e-06 -1.13846e-05      16.4496 
           0      1.33333  1.03242e-05 -9.30171e-06      16.4509 
           0      1.61333   2.5253e-05 -7.48681e-06      16.4522 
           0         1.92  4.30717e-05  -5.6904e-06      16.4534 
           0      2.25333  6.05662e-05 -3.71667e-06      16.4546 
           0      2.61333  7.82805e-05 -1.03461e-06      16.4557 
           0            3  8.62423e-05 -3.60055e-06      16.4566 
          20            0            0            0      16.0833 
          20     0.013333  6.21878e-05  1.82938e-10      16.0833 
          20     0.053333  8.20708e-05 -3.55019e-08      16.0833 
          20         0.12  0.000110428 -9.23733e-08      16.0833 
          20     0.213332   0.00013376  8.58633e-08      16.0833 
          20     0.333332  0.000143926  9.36081e-07      16.0833 
          20         0.48  0.000143919  2.76322e-06      16.0833 
          20     0.653331  0.000141894  5.64175e-06      16.0833 
          20     0.853332  0.000139494  9.34265e-06      16.0832 
          20         1.08  0.000130723  1.32975e-05      16.0832 
          20      1.33333  0.000114014  1.69599e-05      16.0832 
          20      1.61333  9.19471e-05  2.00338e-05      16.0831 
          20         1.92  6.68609e-05  2.18551e-05      16.0831 
          20      2.25333  4.51204e-05  2.29421e-05       16.083 
          20      2.61333  3.11332e-05  2.30882e-05      16.0829 
          20            3  2.29912e-05  2.06606e-05      16.0827 
          40            0            0            0      15.7162 
          40     0.013333  4.96859e-05 -1.72464e-08      15.7162 
          40     0.053333  5.10131e-05 -2.70483e-07      15.7162 
          40         0.12  6.58931e-05 -1.18658e-06      15.7162 
          40     0.213332  9.02233e-05 -3.03289e-06      15.7162 
          40     0.333332  0.000112027 -5.67923e-06      15.7162 
          40         0.48  0.000123614 -8.76093e-06      15.7162 
          40     0.653331  0.000125024 -1.20472e-05      15.7162 
          40     0.853332  0.000117435  -1.5613e-05      15.7162 
          40         1.08  0.000102546 -1.94527e-05      15.7162 
          40      1.33333  8.67074e-05 -2.30798e-05      15.7162 
          40      1.61333  7.21693e-05 -2.58254e-05      15.7162 
          40         1.92  5.45793e-05 -2.74961e-05      15.7161 
          40      2.25333  4.12984e-05  -2.7781e-05      15.7161 
          40      2.61333  3.10302e-05 -2.71046e-05      15.7161 
          40            3  1.99917e-05 -2.66482e-05       15.716 
          60            0           -0           -0      15.3681 
          60     0.013333  3.45753e-05 -3.20247e-08      15.3681 
          60     0.053333  7.59903e-06 -5.20619e-07      15.3681 
          60         0.12  3.37823e-06 -2.50551e-06      15.3681 
          60     0.213332  3.25665e-05 -7.00526e-06      15.3681 
          60     0.333332   7.4608e-05 -1.41501e-05      15.3681 
          60         0.48  0.000103006 -2.32478e-05      15.3681 
          60     0.653331  0.000107325 -3.34994e-05      15.3681 
          60     0.853332  9.51355e-05  -4.4011e-05      15.3681 
          60         1.08  8.26059e-05 -5.36351e-05      15.3681 
          60      1.33333  7.46676e-05 -6.15327e-05      15.3681 
          60      1.61333   6.8011e-05 -6.71795e-05      15.3681 
          60         1.92  5.97578e-05 -6.97954e-05       15.368 
          60      2.25333  5.24915e-05 -6.90713e-05       15.368 
          60      2.61333  4.70428e-05  -6.5457e-05       15.368 
          60            3  4.41869e-05 -5.99487e-05       15.368 
          80            0           -0           -0      15.0308 
          80     0.013333  2.86482e-05 -2.75574e-08      15.0308 
          80     0.053333 -1.28326e-05 -4.45969e-07      15.0308 
          80         0.12 -4.08345e-05 -2.14928e-06      15.0308 
          80     0.213332 -4.00326e-05 -6.04199e-06      15.0308 
          80     0.333332 -2.27916e-05 -1.23632e-05      15.0308 
          80         0.48 -1.00654e-05 -2.07598e-05      15.0308 
          80     0.653331 -1.28532e-05 -3.07678e-05      15.0308 
          80     0.853332 -2.50942e-05 -4.15576e-05      15.0308 
          80         1.08 -2.63709e-05 -5.15879e-05      15.0308 
          80      1.33333 -1.23042e-05 -5.96309e-05      15.0308 
          80      1.61333  4.44269e-06  -6.5477e-05      15.0308 
          80         1.92    2.169e-05 -6.82241e-05      15.0308 
          80      2.25333  3.81444e-05 -6.78856e-05      15.0308 
          80      2.61333  5.04437e-05 -6.47794e-05      15.0308 
          80            3  6.03585e-05 -5.83275e-05      15.0307 
         100            0            0            0      14.7004 
         100     0.013333  4.34471e-05 -1.30409e-08      14.7004 
         100     0.053333  3.71979e-05 -1.96156e-07      14.7004 
         100         0.12  3.84461e-05 -8.46018e-07      14.7004 
         100     0.213332  4.47474e-05 -2.08783e-06      14.7004 
         100     0.333332  4.82326e-05 -3.73499e-06      14.7004 
         100         0.48  4.53567e-05 -5.56662e-06      14.7004 
         100     0.653331  3.73689e-05 -7.57287e-06      14.7004 
         100     0.853332  2.73421e-05 -9.71255e-06      14.7004 
         100         1.08  2.19266e-05  -1.1563e-05      14.7004 
         100      1.33333  2.26472e-05 -1.27114e-05      14.7004 
         100      1.61333  2.38545e-05 -1.32249e-05      14.7004 
         100         1.92  2.48613e-05 -1.29569e-05      14.7004 
         100      2.25333  2.79623e-05 -1.19948e-05      14.7004 
         100      2.61333  3.20643e-05 -1.04234e-05      14.7004 
         100            3  3.67933e-05 -7.72737e-06      14.7003 
         150            0           -0           -0      13.8899 
         150     0.013333  6.00724e-05 -1.98105e-08      13.8899 
         150     0.053333  9.94848e-05 -2.58914e-07      13.8899 
         150         0.12  0.000154569 -9.03744e-07      13.8899 
         150     0.213332  0.000200176 -1.59215e-06      13.8899 
         150     0.333332  0.000219595 -1.54656e-06      13.8899 
         150         0.48  0.000217456 -3.26018e-07      13.8899 
         150     0.653331  0.000205845  1.80591e-06      13.8899 
         150     0.853332  0.000188095  4.21662e-06      13.8899 
         150         1.08  0.000163358  6.54656e-06      13.8899 
         150      1.33333  0.000134056  8.70502e-06      13.8899 
         150      1.61333  0.000101901  1.06767e-05      13.8899 
         150         1.92  6.82243e-05   1.2208e-05      13.8899 
         150      2.25333  3.92625e-05  1.31678e-05      13.8899 
         150      2.61333  1.62292e-05  1.34592e-05      13.8899 
         150            3 -2.32294e-06  1.28603e-05      13.8899 
         200            0  1.19723e-19  1.84032e-26      13.0884 
         200     0.013333   7.5644e-05  7.68571e-08      13.0884 
         200     0.053333  0.000128436  1.21068e-06      13.0884 
         200         0.12  0.000134126  5.78826e-06      13.0884 
         200     0.213332  5.99362e-05  1.62432e-05      13.0884 
         200     0.333332  -5.2132e-05  3.30961e-05      13.0884 
         200         0.48 -0.000137515  5.47803e-05      13.0884 
         200     0.653331 -0.000166833  7.93353e-05      13.0884 
         200     0.853332  -0.00014931   0.00010523      13.0884 
         200         1.08 -0.000115324  0.000130605      13.0884 
         200      1.33333 -8.94984e-05  0.000153279      13.0884 
         200      1.61333 -6.75424e-05  0.000171732      13.0884 
         200         1.92 -3.85282e-05  0.000184251      13.0884 
         200      2.25333 -1.05956e-05  0.000189631      13.0884 
         200      2.61333   1.4882e-05  0.000187687      13.0884 
         200            3  3.62542e-05   0.00017886      13.0884 
         250            0           -0           -0      12.2893 
         250     0.013333  0.000109466  5.06365e-08      12.2893 
         250     0.053333  0.000258032  8.49095e-07      12.2893 
         250         0.12  0.000396772  4.38796e-06      12.2893 
         250     0.213332  0.000447694  1.33415e-05      12.2893 
         250     0.333332  0.000411679  2.93852e-05      12.2893 
         250         0.48  0.000346711  5.23242e-05      12.2893 
         250     0.653331   0.00030621  8.08944e-05      12.2893 
         250     0.853332  0.000303995  0.000113382      12.2893 
         250         1.08  0.000309255  0.000147055      12.2893 
         250      1.33333  0.000281402  0.000178397      12.2893 
         250      1.61333  0.000223715  0.000205036      12.2893 
         250         1.92  0.000159828  0.000225101      12.2893 
         250      2.25333  9.40804e-05  0.000236778      12.2893 
         250      2.61333  3.18201e-05  0.000239482      12.2893 
         250            3 -1.93864e-05  0.000233499      12.2892 
         300            0           -0           -0      11.4897 
         300     0.013333  3.28737e-05 -4.94231e-08      11.4897 
         300     0.053333  1.45966e-05 -7.54811e-07      11.4897 
         300         0.12  3.21686e-05 -3.48711e-06      11.4897 
         300     0.213332  9.69042e-05 -9.52958e-06      11.4897 
         300     0.333332  0.000180272 -1.91017e-05      11.4897 
         300         0.48  0.000244348 -3.13245e-05      11.4897 
         300     0.653331  0.000272467 -4.51297e-05      11.4897 
         300     0.853332  0.000267486 -5.98996e-05      11.4897 
         300         1.08  0.000239933 -7.51693e-05      11.4897 
         300      1.33333  0.000203887 -9.01271e-05      11.4897 
         300      1.61333  0.000167873 -0.000103606      11.4897 
         300         1.92  0.000127887 -0.000114394      11.4897 
         300      2.25333  8.81171e-05 -0.000121574      11.4897 
         300      2.61333  5.12456e-05 -0.000124553      11.4897 
         300            3  1.94581e-05 -0.000123168      11.4897 
         350            0           -0           -0      10.6892 
         350     0.013333 -9.96479e-06  4.18301e-08      10.6892 
         350     0.053333 -0.000161986  5.23979e-07      10.6892 
         350         0.12 -0.000354958  1.68815e-06      10.6892 
         350     0.213332 -0.000512583  2.44006e-06      10.6892 
         350     0.333332 -0.000587008  7.55767e-07      10.6892 
         350         0.48 -0.000592134 -4.59567e-06      10.6892 
         350     0.653331 -0.000570054 -1.31356e-05      10.6892 
         350     0.853332 -0.000538901 -2.30977e-05      10.6892 
         350         1.08 -0.000484113 -3.24184e-05      10.6892 
         350      1.33333 -0.000398358 -4.00021e-05      10.6892 
         350      1.61333 -0.000299308 -4.61888e-05      10.6892 
         350         1.92 -0.000194511 -5.11472e-05      10.6892 
         350      2.25333 -8.92142e-05 -5.43937e-05      10.6892 
         350      2.61333   1.0006e-05 -5.57604e-05      10.6892 
         350            3  9.55422e-05 -5.51094e-05      10.6892 
         400            0           -0           -0      9.88788 
         400     0.013333   3.0026e-05  6.85687e-08      9.88788 
         400     0.053333 -2.77924e-05  9.84939e-07      9.88788 
         400         0.12  -0.00013201  4.13716e-06      9.88788 
         400     0.213332 -0.000253503  1.00287e-05      9.88788 
         400     0.333332 -0.000342037  1.75995e-05      9.88788 
         400         0.48 -0.000374324  2.53281e-05      9.88788 
         400     0.653331 -0.000362467  3.27161e-05      9.88788 
         400     0.853332 -0.000321847  4.04362e-05      9.88788 
         400         1.08 -0.000258759  4.91223e-05      9.88788 
         400      1.33333 -0.000190015  5.81175e-05      9.88788 
         400      1.61333 -0.000132941  6.59346e-05      9.88788 
         400         1.92 -7.74374e-05  7.17827e-05      9.88789 
         400      2.25333 -2.16101e-05  7.54789e-05      9.88789 
         400      2.61333   3.1574e-05  7.66649e-05       9.8879 
         400            3  7.78263e-05  7.51756e-05       9.8879 
         450            0  7.02775e-20 -7.06818e-27      9.08528 
         450     0.013333    0.0001055  5.09568e-08      9.08528 
         450     0.053333  0.000242111  8.58046e-07      9.08528 
         450         0.12  0.000359358  4.46946e-06      9.08528 
         450     0.213332  0.000376809  1.37152e-05      9.08528 
         450     0.333332  0.000299261  3.03765e-05      9.08528 
         450         0.48  0.000197188   5.3969e-05      9.08528 
         450     0.653331  0.000133169  8.25828e-05      9.08528 
         450     0.853332  0.000121667   0.00011419      9.08528 
         450         1.08  0.000134794  0.000146605      9.08528 
         450      1.33333  0.000132291  0.000177311      9.08528 
         450      1.61333  0.000106317  0.000204504      9.08528 
         450         1.92   7.8925e-05  0.000227116      9.08528 
         450      2.25333   5.3587e-05   0.00024373      9.08528 
         450      2.61333  3.04743e-05  0.000252971      9.08527 
         450            3  1.11492e-05  0.000254023      9.08527 
         500            0            0            0      8.28088 
         500     0.013333  3.91733e-05 -9.37556e-08      8.28088 
         500     0.053333  4.77981e-05  -1.3838e-06      8.28088 
         500         0.12  0.000120489 -6.08514e-06      8.28088 
         500     0.213332  0.000252711 -1.57209e-05      8.28088 
         500     0.333332  0.000386834   -2.984e-05      8.28088 
         500         0.48  0.000471562  -4.6778e-05      8.28088 
         500     0.653331  0.000496547  -6.5466e-05      8.28088 
         500     0.853332  0.000469562 -8.61089e-05      8.28088 
         500         1.08  0.000398167 -0.000109126      8.28088 
         500      1.33333  0.000308948  -0.00013335      8.28088 
         500      1.61333  0.000237415 -0.000156151      8.28088 
         500         1.92  0.000178196 -0.000175669      8.28088 
         500      2.25333  0.000119805 -0.000190652      8.28088 
         500      2.61333  6.18248e-05 -0.000200208      8.28087 
         500            3  9.24496e-06 -0.000203583      8.28087 
         550            0           -0           -0       7.4744 
         550     0.013333  5.65984e-06  1.01209e-08       7.4744 
         550     0.053333 -9.92232e-05  8.86475e-08       7.4744 
         550         0.12 -0.000221441 -1.20777e-08       7.4744 
         550     0.213332 -0.000308396 -1.29097e-06       7.4744 
         550     0.333332  -0.00033536 -5.00908e-06       7.4744 
         550         0.48 -0.000320334 -1.16981e-05       7.4744 
         550     0.653331 -0.000297814 -2.08792e-05       7.4744 
         550     0.853332 -0.000285094 -3.14551e-05       7.4744 
         550         1.08 -0.000270475 -4.19375e-05       7.4744 
         550      1.33333 -0.000233291 -5.09402e-05       7.4744 
         550      1.61333 -0.000177915   -5.817e-05       7.4744 
         550         1.92 -0.000123072 -6.41497e-05       7.4744 
         550      2.25333 -6.87006e-05 -6.86483e-05       7.4744 
         550      2.61333 -1.40289e-05 -7.13373e-05      7.47441 
         550            3  3.73199e-05 -7.19798e-05      7.47441 
         600            0           -0           -0       6.6666 
         600     0.013333  5.37213e-05  1.64085e-08       6.6666 
         600     0.053333  6.94004e-05  2.55258e-07       6.6666 
         600         0.12  7.87208e-05  1.20624e-06       6.6666 
         600     0.213332  7.05007e-05  3.37239e-06       6.6666 
         600     0.333332   5.0104e-05  6.90654e-06       6.6666 
         600         0.48  3.12347e-05  1.15583e-05       6.6666 
         600     0.653331  2.27183e-05  1.69944e-05       6.6666 
         600     0.853332  2.60589e-05  2.30695e-05       6.6666 
         600         1.08  3.87319e-05  2.96883e-05       6.6666 
         600      1.33333  5.13868e-05  3.63821e-05       6.6666 
         600      1.61333  5.32545e-05  4.23646e-05       6.6666 
         600         1.92  4.91671e-05  4.71844e-05       6.6666 
         600      2.25333  4.49636e-05  5.08503e-05      6.66661 
         600      2.61333  4.16325e-05  5.31037e-05      6.66661 
         600            3  3.84327e-05  5.37059e-05      6.66661 
         650            0            0            0      5.85741 
         650     0.013333  1.54902e-05  6.70444e-09      5.85741 
         650     0.053333  -6.4314e-05  6.61869e-08      5.85741 
         650         0.12 -0.000158558  5.71692e-08      5.85741 
         650     0.213332 -0.000227121 -6.66559e-07      5.85741 
         650     0.333332 -0.000245419  -3.1232e-06      5.85741 
         650         0.48 -0.000220845 -8.00127e-06      5.85741 
         650     0.653331 -0.000180087 -1.51675e-05      5.85741 
         650     0.853332 -0.000143351 -2.38721e-05      5.85741 
         650         1.08 -0.000114457  -3.3335e-05      5.85741 
         650      1.33333 -9.03428e-05  -4.3061e-05      5.85741 
         650      1.61333 -6.83791e-05 -5.27135e-05      5.85741 
         650         1.92 -4.49458e-05  -6.1986e-05      5.85741 
         650      2.25333 -1.95771e-05  -6.9997e-05      5.85742 
         650      2.61333  6.57711e-06 -7.64552e-05      5.85742 
         650            3  3.24457e-05  -8.1025e-05      5.85742 
         700            0            0            0      5.04773 
         700     0.013333    9.912e-05 -6.19675e-08      5.04773 
         700     0.053333  0.000256073 -8.59017e-07      5.04773 
         700         0.12  0.000490421 -3.39554e-06      5.04773 
         700     0.213332  0.000726707 -7.48588e-06      5.04773 
         700     0.333332  0.000883419 -1.13104e-05      5.04773 
         700         0.48  0.000934771 -1.28005e-05      5.04773 
         700     0.653331  0.000915225  -1.1288e-05      5.04773 
         700     0.853332  0.000866331 -7.78785e-06      5.04773 
         700         1.08  0.000797672 -4.07718e-06      5.04773 
         700      1.33333  0.000702696  -1.3873e-06      5.04773 
         700      1.61333  0.000591862  4.50433e-07      5.04773 
         700         1.92  0.000480353  2.30253e-06      5.04773 
         700      2.25333  0.000364031  4.16807e-06      5.04772 
         700      2.61333  0.000241544  6.00777e-06      5.04772 
         700            3  0.000119477    7.755e-06      5.04771 
         750            0           -0           -0      4.23623 
         750     0.013333   2.7129e-05  1.06171e-07      4.23623 
         750     0.053333 -5.46178e-05  1.56723e-06      4.23623 
         750         0.12 -0.000232766   6.8994e-06      4.23623 
         750     0.213332 -0.000485621  1.78484e-05      4.23623 
         750     0.333332  -0.00072761  3.38035e-05      4.23623 
         750         0.48  -0.00088148  5.24114e-05      4.23623 
         750     0.653331 -0.000933004  7.16868e-05      4.23623 
         750     0.853332 -0.000908958  9.13099e-05      4.23623 
         750         1.08 -0.000830685   0.00011211      4.23623 
         750      1.33333 -0.000713146  0.000134366      4.23623 
         750      1.61333 -0.000585061  0.000156726      4.23623 
         750         1.92 -0.000466012  0.000177133      4.23623 
         750      2.25333 -0.000345587  0.000194287      4.23623 
         750      2.61333 -0.000219302   0.00020726      4.23624 
         750            3 -9.23232e-05  0.000215191      4.23625 
         800            0            0            0      3.42405 
         800     0.013333 -3.31277e-05 -7.78763e-08      3.42405 
         800     0.053333 -0.000213241 -1.24879e-06      3.42405 
         800         0.12 -0.000361915 -6.18567e-06      3.42405 
         800     0.213332  -0.00037667 -1.83142e-05      3.42405 
         800     0.333332 -0.000259149 -3.98205e-05      3.42405 
         800         0.48 -9.65214e-05 -7.03477e-05      3.42405 
         800     0.653331  2.34273e-05 -0.000107823      3.42405 
         800     0.853332  6.49589e-05  -0.00015017      3.42405 
         800         1.08  4.10566e-05 -0.000195727      3.42405 
         800      1.33333  -3.5503e-06 -0.000242292      3.42405 
         800      1.61333 -2.31763e-05  -0.00028713      3.42405 
         800         1.92  -1.4234e-05 -0.000327935      3.42406 
         800      2.25333  9.16245e-07 -0.000363261      3.42406 
         800      2.61333  1.36516e-05 -0.000391176      3.42406 
         800            3  2.60603e-05 -0.000409675      3.42406 
         850            0           -0           -0      2.61065 
         850     0.013333  0.000125229  -1.9946e-08      2.61065 
         850     0.053333  0.000337124  -2.0076e-07      2.61065 
         850         0.12  0.000605152 -2.46174e-07      2.61065 
         850     0.213332  0.000821497  1.45692e-06      2.61065 
         850     0.333332  0.000918295   7.2779e-06      2.61065 
         850         0.48  0.000911365  1.86183e-05      2.61065 
         850     0.653331  0.000866854  3.50095e-05      2.61065 
         850     0.853332  0.000833899  5.46713e-05      2.61065 
         850         1.08  0.000810181  7.52284e-05      2.61065 
         850      1.33333    0.0007579  9.42258e-05      2.61065 
         850      1.61333  0.000658711  0.000110197      2.61065 
         850         1.92  0.000541664   0.00012359      2.61065 
         850      2.25333  0.000423612  0.000134651      2.61065 
         850      2.61333  0.000304819  0.000143057      2.61064 
         850            3  0.000182928  0.000148153      2.61063 
         900            0           -0           -0       1.7955 
         900     0.013333 -7.47766e-06  6.50986e-08       1.7955 
         900     0.053333 -0.000166145  9.11529e-07       1.7955 
         900         0.12 -0.000402328  3.67112e-06       1.7955 
         900     0.213332 -0.000646688  8.35114e-06       1.7955 
         900     0.333332  -0.00081698  1.32836e-05       1.7955 
         900         0.48 -0.000880625  1.63989e-05       1.7955 
         900     0.653331 -0.000867909  1.69094e-05       1.7955 
         900     0.853332  -0.00082342  1.57317e-05       1.7955 
         900         1.08 -0.000759459  1.47711e-05       1.7955 
         900      1.33333 -0.000663936  1.55965e-05       1.7955 
         900      1.61333  -0.00054425    1.817e-05       1.7955 
         900         1.92 -0.000431129  2.09501e-05      1.79551 
         900      2.25333 -0.000322777  2.31457e-05      1.79551 
         900      2.61333 -0.000212018  2.46192e-05      1.79552 
         900            3 -9.88127e-05  2.54237e-05      1.79552 
         950            0           -0           -0     0.980183 
         950     0.013333  1.78302e-05 -7.12785e-08     0.980183 
         950     0.053333 -3.25766e-05 -1.08751e-06     0.980183 
         950         0.12  -3.4129e-05 -5.03449e-06     0.980183 
         950     0.213332  4.71691e-05 -1.38673e-05     0.980183 
         950     0.333332  0.000179482 -2.81762e-05     0.980183 
         950         0.48  0.000300069 -4.69788e-05     0.980183 
         950     0.653331  0.000369011 -6.88628e-05     0.980183 
         950     0.853332  0.000379995 -9.31572e-05     0.980183 
         950         1.08  0.000339982 -0.000119894     0.980183 
         950      1.33333  0.000267112  -0.00014863     0.980183 
         950      1.61333  0.000198025 -0.000177557     0.980183 
         950         1.92  0.000157763  -0.00020437     0.980183 
         950      2.25333  0.000129382 -0.000227918     0.980182 
         950      2.61333  0.000100336  -0.00024725     0.980181 
         950            3  6.98149e-05 -0.000261374     0.980179 
        1000            0  5.73803e-20  8.14167e-25     0.163525 
        1000     0.013333  7.09855e-05  8.95304e-09     0.163525 
        1000     0.053333  0.000135413  1.42111e-07     0.163525 
        1000         0.12  0.000212664  8.43388e-07     0.163525 
        1000     0.213332  0.000268076  2.93296e-06     0.163525 
        1000     0.333332  0.000285523  7.17189e-06     0.163525 
        1000         0.48  0.000275556  1.37446e-05     0.163525 
        1000     0.653331  0.000261021  2.22816e-05     0.163525 
        1000     0.853332  0.000258206  3.22457e-05     0.163525 
        1000         1.08  0.000267858  4.30516e-05     0.163525 
        1000      1.33333  0.000273343  5.37462e-05     0.163525 
        1000      1.61333  0.000254195  6.32252e-05     0.163525 
        1000         1.92  0.000214091  7.10878e-05     0.163525 
        1000      2.25333  0.000171314  7.76306e-05     0.163524 
        1000      2.61333   0.00013111  8.28158e-05     0.163522 
        1000            3  9.04466e-05  8.63585e-05      0.16352 
