Variables = x, y, u, v, p

Zone, I=2080, F=POINT
         -50            0  8.47663e-21 -4.32261e-24     -15.8875 
         -50      0.00048  8.32898e-07 -4.31918e-10     -15.8875 
         -50     0.001922  2.82273e-06 -1.54039e-09     -15.8875 
         -50     0.004326  4.76445e-06 -2.83206e-09     -15.8875 
         -50      0.00769  5.56583e-06 -3.69852e-09     -15.8875 
         -50     0.012017  5.02946e-06 -3.63371e-09     -15.8875 
         -50     0.017304  4.05639e-06 -2.36627e-09     -15.8875 
         -50     0.023553  4.00616e-06  1.60443e-10     -15.8875 
         -50     0.030763  5.49927e-06   3.9595e-09     -15.8875 
         -50     0.038936  7.57921e-06  9.22199e-09     -15.8875 
         -50     0.048069  8.40351e-06  1.64133e-08     -15.8875 
         -50     0.058163   7.7984e-06  2.61614e-08     -15.8875 
         -50     0.069219  9.01538e-06  3.91545e-08     -15.8875 
         -50     0.081236  1.05064e-05  5.70728e-08     -15.8875 
         -50     0.094215  1.09047e-05  8.01986e-08     -15.8875 
         -50     0.108155  1.18624e-05  1.09704e-07     -15.8875 
         -50     0.123056  1.21634e-05  1.45804e-07     -15.8875 
         -50     0.138918  1.23067e-05  1.88754e-07     -15.8875 
         -50     0.155744  1.23774e-05  2.39075e-07     -15.8875 
         -50     0.173529   1.2218e-05  2.97009e-07     -15.8875 
         -50     0.192276  1.17038e-05  3.62246e-07     -15.8875 
         -50     0.211984  1.09663e-05  4.34517e-07     -15.8875 
         -50     0.232655  1.02577e-05  5.16415e-07     -15.8875 
         -50     0.254285  9.16857e-06  6.19635e-07     -15.8875 
         -50     0.276877  8.07841e-06  7.34892e-07     -15.8875 
         -50     0.300431  6.84394e-06  8.77957e-07     -15.8875 
         -50     0.324946  5.52169e-06  1.07255e-06     -15.8875 
         -50     0.350424  4.16439e-06   1.3247e-06     -15.8875 
         -50     0.376861  2.81984e-06  1.62636e-06     -15.8875 
         -50      0.40426   1.5293e-06  1.96152e-06     -15.8875 
         -50     0.432621  3.27717e-07  2.31347e-06     -15.8875 
         -50     0.461945 -7.56282e-07  2.67186e-06     -15.8875 
         -50     0.492228 -1.69979e-06  3.03674e-06     -15.8875 
         -50     0.523472 -2.48599e-06  3.41606e-06     -15.8875 
         -50     0.555678 -3.10496e-06  3.81098e-06     -15.8875 
         -50     0.588845 -3.55711e-06  4.18227e-06     -15.8874 
         -50     0.622976 -3.84256e-06  4.53359e-06     -15.8874 
         -50     0.658066 -3.97556e-06  4.99705e-06     -15.8874 
         -50     0.694117 -3.98583e-06   5.4581e-06     -15.8874 
         -50      0.73113 -3.88139e-06  5.92794e-06     -15.8874 
         -50     0.769107 -3.67697e-06  6.41199e-06     -15.8874 
         -50     0.808042 -3.39333e-06   6.9104e-06     -15.8874 
         -50     0.847939 -3.05601e-06  7.41944e-06     -15.8873 
         -50     0.888797   -2.694e-06  7.93266e-06     -15.8873 
         -50      0.93062 -2.33781e-06  8.44271e-06     -15.8873 
         -50       0.9734 -2.01755e-06  8.94293e-06     -15.8873 
         -50      1.01714 -1.76055e-06  9.42931e-06     -15.8873 
         -50      1.06185 -1.58927e-06  9.90168e-06     -15.8872 
         -50      1.10751  -1.5191e-06  1.03646e-05     -15.8872 
         -50      1.15414  -1.5568e-06  1.08272e-05     -15.8872 
         -50      1.20173 -1.69942e-06  1.13011e-05     -15.8872 
         -50      1.25028 -1.93442e-06   1.1797e-05     -15.8871 
         -50      1.29979 -2.24127e-06  1.23178e-05     -15.8871 
         -50      1.35026 -2.59506e-06  1.28486e-05     -15.8871 
         -50       1.4017 -2.97265e-06  1.33411e-05      -15.887 
         -50      1.45409  -3.3625e-06  1.36939e-05      -15.887 
         -50      1.50745 -3.78033e-06  1.37383e-05     -15.8869 
         -50      1.56176 -4.18521e-06  1.42315e-05     -15.8869 
         -50      1.61705 -4.39033e-06  1.46565e-05     -15.8868 
         -50      1.67329 -4.48127e-06  1.50135e-05     -15.8868 
         -50      1.73049 -4.52889e-06   1.5304e-05     -15.8867 
         -50      1.78865 -4.58896e-06  1.55304e-05     -15.8867 
         -50      1.84778 -4.70231e-06  1.56964e-05     -15.8866 
         -50      1.90786 -4.89516e-06  1.58068e-05     -15.8866 
         -50      1.96891 -5.18003e-06  1.58677e-05     -15.8865 
         -50      2.03092 -5.55684e-06  1.58861e-05     -15.8865 
         -50      2.09389 -6.01453e-06  1.58705e-05     -15.8864 
         -50      2.15782 -6.53273e-06  1.58304e-05     -15.8863 
         -50      2.22272  -7.0842e-06   1.5776e-05     -15.8862 
         -50      2.28857 -7.63706e-06  1.57187e-05     -15.8862 
         -50      2.35539 -8.15749e-06  1.56702e-05     -15.8861 
         -50      2.42317 -8.61248e-06  1.56426e-05      -15.886 
         -50      2.49191 -8.97244e-06  1.56479e-05     -15.8859 
         -50      2.56161 -9.21406e-06  1.56978e-05     -15.8858 
         -50      2.63226 -9.32264e-06  1.58028e-05     -15.8857 
         -50      2.70389 -9.29409e-06  1.59721e-05     -15.8856 
         -50      2.77648 -9.13641e-06  1.62125e-05     -15.8855 
         -50      2.85002 -8.87032e-06  1.65275e-05     -15.8854 
         -50      2.92453 -8.52885e-06  1.69169e-05     -15.8853 
         -50            3 -8.15557e-06  1.73748e-05     -15.8852 
         -25            0           -0           -0     -15.2443 
         -25      0.00048   5.4025e-07 -1.73821e-10     -15.2443 
         -25     0.001922  1.78624e-06 -4.38693e-10     -15.2443 
         -25     0.004326  2.84963e-06  -5.8823e-11     -15.2443 
         -25      0.00769  2.92007e-06  2.08097e-09     -15.2443 
         -25     0.012017  1.83651e-06  7.35731e-09     -15.2443 
         -25     0.017304  2.39488e-07  1.72952e-08     -15.2443 
         -25     0.023553 -8.95857e-07  3.35232e-08     -15.2443 
         -25     0.030763 -1.13041e-06  5.77512e-08     -15.2443 
         -25     0.038936 -1.17153e-06   9.1783e-08     -15.2443 
         -25     0.048069 -2.36473e-06  1.37429e-07     -15.2443 
         -25     0.058163 -4.82813e-06    1.964e-07     -15.2443 
         -25     0.069219 -6.16884e-06  2.70187e-07     -15.2443 
         -25     0.081236 -7.49029e-06  3.60411e-07     -15.2443 
         -25     0.094215  -9.7525e-06  4.67752e-07     -15.2443 
         -25     0.108155 -1.17044e-05  5.92839e-07     -15.2443 
         -25     0.123056 -1.41845e-05  7.35977e-07     -15.2443 
         -25     0.138918 -1.67768e-05  8.96956e-07     -15.2443 
         -25     0.155744 -1.93689e-05  1.07532e-06     -15.2443 
         -25     0.173529 -2.20282e-05  1.27028e-06     -15.2443 
         -25     0.192276 -2.48064e-05  1.48097e-06     -15.2443 
         -25     0.211984 -2.75754e-05  1.70627e-06     -15.2443 
         -25     0.232655 -3.01288e-05    1.945e-06     -15.2443 
         -25     0.254285 -3.27513e-05  2.19561e-06     -15.2443 
         -25     0.276877 -3.51639e-05  2.45713e-06     -15.2443 
         -25     0.300431 -3.74784e-05  2.72818e-06     -15.2443 
         -25     0.324946 -3.96616e-05  3.00587e-06     -15.2443 
         -25     0.350424 -4.16894e-05  3.28837e-06     -15.2443 
         -25     0.376861 -4.35457e-05  3.57506e-06     -15.2443 
         -25      0.40426 -4.52211e-05  3.86682e-06     -15.2443 
         -25     0.432621 -4.67091e-05  4.16591e-06     -15.2443 
         -25     0.461945 -4.80034e-05  4.47577e-06     -15.2443 
         -25     0.492228 -4.90945e-05  4.80041e-06     -15.2443 
         -25     0.523472 -4.99703e-05  5.14352e-06     -15.2443 
         -25     0.555678 -5.06182e-05  5.50686e-06     -15.2443 
         -25     0.588845 -5.10353e-05  5.88809e-06     -15.2443 
         -25     0.622976 -5.12427e-05  6.27699e-06     -15.2443 
         -25     0.658066 -5.12163e-05  6.66476e-06     -15.2442 
         -25     0.694117 -5.09662e-05  7.05365e-06     -15.2442 
         -25      0.73113 -5.05252e-05  7.44433e-06     -15.2442 
         -25     0.769107 -4.99268e-05  7.83671e-06     -15.2442 
         -25     0.808042 -4.92052e-05  8.22989e-06     -15.2442 
         -25     0.847939 -4.83927e-05  8.62241e-06     -15.2442 
         -25     0.888797 -4.75198e-05  9.01227e-06     -15.2442 
         -25      0.93062 -4.66127e-05  9.39714e-06     -15.2442 
         -25       0.9734 -4.56934e-05  9.77448e-06     -15.2442 
         -25      1.01714 -4.47775e-05  1.01419e-05     -15.2442 
         -25      1.06185 -4.38744e-05   1.0497e-05     -15.2442 
         -25      1.10751 -4.29862e-05  1.08381e-05     -15.2442 
         -25      1.15414  -4.2108e-05  1.11636e-05     -15.2442 
         -25      1.20173  -4.1229e-05  1.14723e-05     -15.2441 
         -25      1.25028 -4.03333e-05  1.17631e-05     -15.2441 
         -25      1.29979 -3.94032e-05  1.20343e-05     -15.2441 
         -25      1.35026 -3.84228e-05  1.22828e-05     -15.2441 
         -25       1.4017 -3.73837e-05  1.25031e-05     -15.2441 
         -25      1.45409 -3.62926e-05  1.26848e-05     -15.2441 
         -25      1.50745 -3.51774e-05  1.28105e-05     -15.2441 
         -25      1.56176 -3.38411e-05  1.29207e-05      -15.244 
         -25      1.61705 -3.23964e-05  1.30673e-05      -15.244 
         -25      1.67329 -3.08824e-05  1.32224e-05      -15.244 
         -25      1.73049 -2.93328e-05   1.3363e-05      -15.244 
         -25      1.78865 -2.77759e-05  1.34712e-05      -15.244 
         -25      1.84778 -2.62341e-05  1.35343e-05     -15.2439 
         -25      1.90786 -2.47248e-05  1.35447e-05     -15.2439 
         -25      1.96891 -2.32593e-05  1.34997e-05     -15.2439 
         -25      2.03092 -2.18437e-05  1.34016e-05     -15.2439 
         -25      2.09389 -2.04792e-05  1.32568e-05     -15.2439 
         -25      2.15782 -1.91629e-05  1.30757e-05     -15.2438 
         -25      2.22272 -1.78878e-05   1.2872e-05     -15.2438 
         -25      2.28857  -1.6644e-05  1.26619e-05     -15.2438 
         -25      2.35539 -1.54196e-05  1.24633e-05     -15.2437 
         -25      2.42317 -1.42014e-05  1.22952e-05     -15.2437 
         -25      2.49191 -1.29765e-05  1.21762e-05     -15.2437 
         -25      2.56161 -1.17329e-05  1.21241e-05     -15.2436 
         -25      2.63226 -1.04609e-05  1.21548e-05     -15.2436 
         -25      2.70389 -9.15395e-06  1.22813e-05     -15.2436 
         -25      2.77648 -7.81031e-06  1.25126e-05     -15.2435 
         -25      2.85002 -6.43338e-06  1.28536e-05     -15.2435 
         -25      2.92453 -5.03277e-06  1.33043e-05     -15.2434 
         -25            3 -3.62474e-06  1.38592e-05     -15.2434 
           0            0            0            0     -14.7153 
           0      0.00048  7.33438e-06  -4.5195e-06     -14.7153 
           0     0.001922   2.4696e-05 -1.48304e-05     -14.7154 
           0     0.004326  4.08606e-05 -2.32208e-05     -14.7155 
           0      0.00769  4.49478e-05 -2.26525e-05     -14.7156 
           0     0.012017  3.34773e-05 -1.18673e-05     -14.7158 
           0     0.017304  1.30802e-05  2.94375e-06      -14.716 
           0     0.023553 -3.68707e-06  1.18514e-05     -14.7162 
           0     0.030763 -7.82229e-06  8.89353e-06     -14.7164 
           0     0.038936  -2.2455e-06 -1.37664e-06     -14.7167 
           0     0.048069  6.53162e-08 -5.88449e-06     -14.7169 
           0     0.058163 -7.39822e-06  2.45861e-06     -14.7171 
           0     0.069219 -8.26347e-06  8.39917e-06     -14.7173 
           0     0.081236 -5.30379e-06  6.32232e-08     -14.7175 
           0     0.094215 -5.73596e-06  1.62582e-06     -14.7178 
           0     0.108155 -2.87152e-06  2.14609e-06      -14.718 
           0     0.123056 -2.50821e-06  2.87282e-06     -14.7182 
           0     0.138918 -1.30213e-06  2.83232e-06     -14.7185 
           0     0.155744   1.3026e-06  2.16961e-06     -14.7187 
           0     0.173529  4.16711e-06  1.61604e-06      -14.719 
           0     0.192276  6.25485e-06  1.67234e-06     -14.7192 
           0     0.211984  8.13089e-06  1.94079e-06     -14.7195 
           0     0.232655  1.12098e-05  1.44541e-06     -14.7197 
           0     0.254285  1.31157e-05  1.08199e-06       -14.72 
           0     0.276877   1.5567e-05  8.44006e-07     -14.7202 
           0     0.300431  1.76344e-05  5.16398e-07     -14.7205 
           0     0.324946  1.94956e-05  1.60096e-07     -14.7207 
           0     0.350424  2.11413e-05 -2.09709e-07      -14.721 
           0     0.376861  2.25458e-05 -6.03575e-07     -14.7213 
           0      0.40426   2.3694e-05 -1.01967e-06     -14.7215 
           0     0.432621  2.45853e-05 -1.45389e-06     -14.7218 
           0     0.461945  2.52202e-05 -1.90603e-06      -14.722 
           0     0.492228   2.5591e-05 -2.37601e-06     -14.7223 
           0     0.523472  2.57043e-05 -2.86325e-06     -14.7225 
           0     0.555678  2.55643e-05 -3.36581e-06     -14.7228 
           0     0.588845  2.51721e-05 -3.88043e-06     -14.7231 
           0     0.622976  2.45339e-05 -4.40909e-06     -14.7233 
           0     0.658066  2.36714e-05 -4.96245e-06     -14.7236 
           0     0.694117  2.26026e-05 -5.50942e-06     -14.7238 
           0      0.73113  2.13531e-05 -6.07438e-06     -14.7241 
           0     0.769107  1.99422e-05 -6.65446e-06     -14.7243 
           0     0.808042  1.84012e-05 -7.22838e-06     -14.7246 
           0     0.847939  1.67921e-05  -7.8174e-06     -14.7248 
           0     0.888797  1.51304e-05 -8.39502e-06     -14.7251 
           0      0.93062  1.34513e-05 -8.96907e-06     -14.7253 
           0       0.9734  1.17871e-05 -9.54227e-06     -14.7256 
           0      1.01714  1.01625e-05 -1.01114e-05     -14.7258 
           0      1.06185   8.5934e-06 -1.06691e-05      -14.726 
           0      1.10751  7.08484e-06 -1.12082e-05     -14.7263 
           0      1.15414  5.63102e-06 -1.17296e-05     -14.7265 
           0      1.20173  4.21799e-06 -1.22543e-05     -14.7268 
           0      1.25028  2.82445e-06 -1.27288e-05      -14.727 
           0      1.29979  1.45801e-06 -1.31841e-05     -14.7272 
           0      1.35026  5.74888e-08  -1.3619e-05     -14.7275 
           0       1.4017 -1.43085e-06  -1.4037e-05     -14.7277 
           0      1.45409 -3.03821e-06 -1.44486e-05     -14.7279 
           0      1.50745 -4.76232e-06 -1.48513e-05     -14.7281 
           0      1.56176 -6.55919e-06 -1.51943e-05     -14.7284 
           0      1.61705  -8.3658e-06 -1.54476e-05     -14.7286 
           0      1.67329   -1.023e-05  -1.5781e-05     -14.7288 
           0      1.73049 -1.21093e-05 -1.60052e-05      -14.729 
           0      1.78865  -1.3971e-05 -1.61651e-05     -14.7292 
           0      1.84778 -1.57798e-05 -1.62862e-05     -14.7294 
           0      1.90786 -1.75072e-05 -1.63804e-05     -14.7296 
           0      1.96891 -1.91401e-05 -1.64526e-05     -14.7298 
           0      2.03092  -2.0685e-05 -1.65096e-05       -14.73 
           0      2.09389 -2.21562e-05 -1.65567e-05     -14.7302 
           0      2.15782 -2.34536e-05 -1.65284e-05     -14.7304 
           0      2.22272 -2.45496e-05 -1.64451e-05     -14.7306 
           0      2.28857 -2.54084e-05 -1.62874e-05     -14.7308 
           0      2.35539 -2.60273e-05 -1.60726e-05      -14.731 
           0      2.42317 -2.64264e-05 -1.58471e-05     -14.7312 
           0      2.49191 -2.66401e-05 -1.56662e-05     -14.7314 
           0      2.56161 -2.67102e-05  -1.5561e-05     -14.7316 
           0      2.63226 -2.66814e-05 -1.54873e-05     -14.7317 
           0      2.70389 -2.66326e-05 -1.54571e-05     -14.7319 
           0      2.77648 -2.66979e-05 -1.58056e-05     -14.7321 
           0      2.85002 -2.68059e-05 -1.62053e-05     -14.7322 
           0      2.92453 -2.69337e-05 -1.67541e-05     -14.7324 
           0            3 -2.70671e-05 -1.74979e-05     -14.7326 
          20            0            0            0     -14.3934 
          20      0.00048 -1.75432e-08 -1.07836e-10     -14.3934 
          20     0.001922 -3.53457e-07 -4.31187e-10     -14.3934 
          20     0.004326 -1.66706e-06  -9.9498e-10     -14.3934 
          20      0.00769 -4.53011e-06 -1.92076e-09     -14.3934 
          20     0.012017 -8.98577e-06 -3.52237e-09     -14.3934 
          20     0.017304 -1.44218e-05 -6.39032e-09     -14.3934 
          20     0.023553 -1.99495e-05 -1.14554e-08     -14.3934 
          20     0.030763 -2.50848e-05 -2.00114e-08     -14.3934 
          20     0.038936 -3.02376e-05 -3.37311e-08     -14.3934 
          20     0.048069  -3.6313e-05 -5.46774e-08     -14.3934 
          20     0.058163 -4.32589e-05 -8.53647e-08     -14.3934 
          20     0.069219   -4.906e-05 -1.28761e-07     -14.3934 
          20     0.081236 -5.44539e-05 -1.87984e-07     -14.3934 
          20     0.094215 -6.00876e-05 -2.66839e-07     -14.3934 
          20     0.108155 -6.48919e-05 -3.69205e-07     -14.3934 
          20     0.123056  -6.9463e-05  -4.9896e-07     -14.3934 
          20     0.138918 -7.34387e-05 -6.60075e-07     -14.3934 
          20     0.155744 -7.67215e-05 -8.56374e-07     -14.3934 
          20     0.173529 -7.93793e-05 -1.09124e-06     -14.3934 
          20     0.192276 -8.14907e-05 -1.36764e-06     -14.3934 
          20     0.211984 -8.30122e-05 -1.68787e-06     -14.3934 
          20     0.232655 -8.38527e-05 -2.05368e-06     -14.3934 
          20     0.254285 -8.43171e-05 -2.46601e-06     -14.3934 
          20     0.276877 -8.42728e-05 -2.92494e-06     -14.3934 
          20     0.300431 -8.38936e-05 -3.43028e-06     -14.3934 
          20     0.324946  -8.3237e-05 -3.98051e-06     -14.3934 
          20     0.350424 -8.23623e-05 -4.57379e-06     -14.3934 
          20     0.376861 -8.13285e-05  -5.2078e-06     -14.3934 
          20      0.40426 -8.01909e-05 -5.88021e-06     -14.3934 
          20     0.432621 -7.89992e-05 -6.58856e-06     -14.3934 
          20     0.461945 -7.77962e-05 -7.33048e-06     -14.3934 
          20     0.492228 -7.66172e-05 -8.10366e-06     -14.3934 
          20     0.523472 -7.54906e-05 -8.90629e-06     -14.3934 
          20     0.555678 -7.44409e-05 -9.73693e-06     -14.3933 
          20     0.588845 -7.34932e-05 -1.05946e-05     -14.3933 
          20     0.622976 -7.26545e-05 -1.14798e-05     -14.3933 
          20     0.658066 -7.19268e-05 -1.23894e-05     -14.3933 
          20     0.694117 -7.13227e-05 -1.33209e-05     -14.3933 
          20      0.73113 -7.08067e-05 -1.42735e-05     -14.3933 
          20     0.769107 -7.03341e-05 -1.52447e-05     -14.3933 
          20     0.808042 -6.98531e-05 -1.62302e-05     -14.3933 
          20     0.847939 -6.93078e-05 -1.72245e-05     -14.3933 
          20     0.888797 -6.86418e-05 -1.82213e-05     -14.3933 
          20      0.93062 -6.78022e-05 -1.92136e-05     -14.3933 
          20       0.9734 -6.67439e-05  -2.0194e-05     -14.3933 
          20      1.01714 -6.54331e-05 -2.11557e-05     -14.3933 
          20      1.06185 -6.38511e-05 -2.20925e-05     -14.3933 
          20      1.10751 -6.19962e-05 -2.29995e-05     -14.3933 
          20      1.15414 -5.98845e-05  -2.3873e-05     -14.3933 
          20      1.20173 -5.75483e-05 -2.47106e-05     -14.3933 
          20      1.25028 -5.50301e-05 -2.55112e-05     -14.3933 
          20      1.29979 -5.23723e-05 -2.62737e-05     -14.3933 
          20      1.35026 -4.96014e-05 -2.69957e-05     -14.3933 
          20       1.4017 -4.67048e-05 -2.76715e-05     -14.3933 
          20      1.45409 -4.35965e-05 -2.82885e-05     -14.3932 
          20      1.50745 -4.00857e-05 -2.88249e-05     -14.3932 
          20      1.56176 -3.68659e-05 -2.93691e-05     -14.3932 
          20      1.61705 -3.36146e-05 -2.98382e-05     -14.3932 
          20      1.67329 -3.04297e-05 -3.02402e-05     -14.3932 
          20      1.73049   -2.739e-05 -3.05812e-05     -14.3932 
          20      1.78865 -2.45557e-05 -3.08655e-05     -14.3932 
          20      1.84778 -2.19684e-05 -3.10956e-05     -14.3932 
          20      1.90786 -1.96521e-05 -3.12724e-05     -14.3932 
          20      1.96891 -1.76134e-05 -3.13954e-05     -14.3932 
          20      2.03092 -1.58435e-05  -3.1463e-05     -14.3931 
          20      2.09389 -1.43201e-05 -3.14727e-05     -14.3931 
          20      2.15782 -1.30099e-05 -3.14218e-05     -14.3931 
          20      2.22272 -1.18709e-05 -3.13071e-05     -14.3931 
          20      2.28857  -1.0856e-05  -3.1126e-05     -14.3931 
          20      2.35539 -9.91548e-06 -3.08769e-05     -14.3931 
          20      2.42317 -9.00137e-06  -3.0559e-05      -14.393 
          20      2.49191 -8.07047e-06 -3.01736e-05      -14.393 
          20      2.56161 -7.08763e-06 -2.97239e-05      -14.393 
          20      2.63226 -6.02906e-06 -2.92154e-05      -14.393 
          20      2.70389 -4.88488e-06 -2.86565e-05      -14.393 
          20      2.77648 -3.66151e-06 -2.80585e-05     -14.3929 
          20      2.85002 -2.38216e-06 -2.74352e-05     -14.3929 
          20      2.92453 -1.08706e-06  -2.6803e-05     -14.3929 
          20            3  1.68428e-07 -2.61806e-05     -14.3929 
          40            0            0            0     -14.0598 
          40      0.00048 -4.77046e-07 -3.99789e-11     -14.0598 
          40     0.001922 -2.16229e-06 -1.79082e-10     -14.0598 
          40     0.004326 -5.63488e-06 -5.11283e-10     -14.0598 
          40      0.00769 -1.13675e-05 -1.31009e-09     -14.0598 
          40     0.012017 -1.93223e-05 -3.18762e-09     -14.0598 
          40     0.017304  -2.8823e-05 -7.27844e-09     -14.0598 
          40     0.023553 -3.89187e-05 -1.54364e-08     -14.0598 
          40     0.030763 -4.90122e-05 -3.04057e-08     -14.0598 
          40     0.038936 -5.93238e-05 -5.59733e-08     -14.0598 
          40     0.048069 -7.05192e-05 -9.70481e-08     -14.0598 
          40     0.058163 -8.23703e-05 -1.59732e-07     -14.0598 
          40     0.069219 -9.28222e-05 -2.51283e-07     -14.0598 
          40     0.081236 -0.000102387 -3.79902e-07     -14.0598 
          40     0.094215 -0.000111509 -5.54701e-07     -14.0598 
          40     0.108155 -0.000119058 -7.85183e-07     -14.0598 
          40     0.123056 -0.000125482 -1.08114e-06     -14.0598 
          40     0.138918 -0.000130374 -1.45206e-06     -14.0598 
          40     0.155744 -0.000133609 -1.90685e-06     -14.0598 
          40     0.173529 -0.000135258  -2.4532e-06     -14.0598 
          40     0.192276 -0.000135438 -3.09781e-06     -14.0598 
          40     0.211984 -0.000134192 -3.84579e-06     -14.0598 
          40     0.232655 -0.000131546 -4.70054e-06     -14.0598 
          40     0.254285 -0.000127922 -5.66271e-06     -14.0598 
          40     0.276877 -0.000123352 -6.73358e-06     -14.0598 
          40     0.300431 -0.000118165   -7.911e-06     -14.0598 
          40     0.324946  -0.00011258 -9.19047e-06     -14.0598 
          40     0.350424 -0.000106815 -1.05673e-05     -14.0598 
          40     0.376861 -0.000101074  -1.2036e-05     -14.0598 
          40      0.40426 -9.55389e-05 -1.35906e-05     -14.0598 
          40     0.432621 -9.03587e-05 -1.52243e-05     -14.0598 
          40     0.461945 -8.56474e-05 -1.69288e-05     -14.0598 
          40     0.492228 -8.14793e-05 -1.86948e-05     -14.0598 
          40     0.523472 -7.78876e-05 -2.05123e-05     -14.0598 
          40     0.555678 -7.48678e-05 -2.23724e-05     -14.0598 
          40     0.588845 -7.23851e-05 -2.42691e-05     -14.0598 
          40     0.622976 -7.03718e-05 -2.61996e-05     -14.0598 
          40     0.658066 -6.87417e-05 -2.81349e-05     -14.0598 
          40     0.694117 -6.73844e-05 -3.00687e-05     -14.0598 
          40      0.73113 -6.61731e-05 -3.19984e-05     -14.0598 
          40     0.769107 -6.49913e-05  -3.3919e-05     -14.0598 
          40     0.808042 -6.37357e-05 -3.58238e-05     -14.0598 
          40     0.847939 -6.23199e-05  -3.7705e-05     -14.0598 
          40     0.888797 -6.06761e-05  -3.9554e-05     -14.0598 
          40      0.93062 -5.87576e-05 -4.13625e-05     -14.0598 
          40       0.9734   -5.654e-05 -4.31224e-05     -14.0598 
          40      1.01714 -5.40198e-05 -4.48277e-05     -14.0598 
          40      1.06185 -5.12146e-05 -4.64744e-05     -14.0598 
          40      1.10751 -4.81589e-05 -4.80607e-05     -14.0598 
          40      1.15414 -4.49004e-05 -4.95878e-05     -14.0598 
          40      1.20173 -4.14939e-05 -5.10579e-05     -14.0598 
          40      1.25028 -3.79917e-05 -5.24741e-05     -14.0598 
          40      1.29979 -3.44337e-05 -5.38374e-05     -14.0598 
          40      1.35026 -3.08332e-05 -5.51428e-05     -14.0598 
          40       1.4017 -2.71621e-05 -5.63732e-05     -14.0598 
          40      1.45409 -2.33302e-05 -5.74927e-05     -14.0598 
          40      1.50745 -1.91895e-05 -5.84412e-05     -14.0598 
          40      1.56176 -1.59971e-05 -5.95088e-05     -14.0598 
          40      1.61705 -1.25952e-05 -6.04122e-05     -14.0598 
          40      1.67329 -9.05709e-06 -6.11625e-05     -14.0598 
          40      1.73049  -5.4515e-06 -6.17705e-05     -14.0598 
          40      1.78865 -1.84297e-06 -6.22465e-05     -14.0598 
          40      1.84778  1.70932e-06 -6.26002e-05     -14.0598 
          40      1.90786  5.15116e-06 -6.28405e-05     -14.0598 
          40      1.96891  8.43566e-06 -6.29754e-05     -14.0598 
          40      2.03092  1.15224e-05 -6.30123e-05     -14.0598 
          40      2.09389  1.43784e-05  -6.2957e-05     -14.0597 
          40      2.15782  1.69773e-05 -6.28147e-05     -14.0597 
          40      2.22272  1.93014e-05 -6.25892e-05     -14.0597 
          40      2.28857  2.13397e-05 -6.22833e-05     -14.0597 
          40      2.35539  2.30892e-05 -6.18987e-05     -14.0597 
          40      2.42317  2.45538e-05  -6.1436e-05     -14.0597 
          40      2.49191  2.57435e-05  -6.0895e-05     -14.0597 
          40      2.56161  2.66749e-05 -6.02747e-05     -14.0597 
          40      2.63226  2.73695e-05 -5.95736e-05     -14.0597 
          40      2.70389   2.7853e-05 -5.87895e-05     -14.0597 
          40      2.77648   2.8154e-05 -5.79208e-05     -14.0597 
          40      2.85002  2.83029e-05 -5.69657e-05     -14.0597 
          40      2.92453  2.83302e-05 -5.59234e-05     -14.0597 
          40            3   2.8265e-05 -5.47941e-05     -14.0596 
          60            0           -0           -0     -13.7434 
          60      0.00048 -7.42118e-07  -2.7846e-11     -13.7434 
          60     0.001922 -3.21053e-06 -1.73509e-10     -13.7434 
          60     0.004326 -7.95152e-06 -6.57472e-10     -13.7434 
          60      0.00769 -1.54004e-05 -1.95576e-09     -13.7434 
          60     0.012017 -2.54965e-05 -4.95053e-09     -13.7434 
          60     0.017304 -3.75549e-05 -1.11025e-08     -13.7434 
          60     0.023553 -5.06226e-05 -2.26421e-08     -13.7434 
          60     0.030763 -6.40812e-05 -4.27284e-08     -13.7434 
          60     0.038936 -7.80971e-05 -7.55924e-08     -13.7434 
          60     0.048069 -9.32614e-05 -1.26586e-07     -13.7434 
          60     0.058163 -0.000109306 -2.02231e-07     -13.7434 
          60     0.069219 -0.000124204 -3.10147e-07     -13.7434 
          60     0.081236 -0.000138399 -4.58869e-07     -13.7434 
          60     0.094215 -0.000152274 -6.57693e-07     -13.7434 
          60     0.108155 -0.000164697 -9.16224e-07     -13.7434 
          60     0.123056 -0.000176059 -1.24434e-06     -13.7434 
          60     0.138918 -0.000185928 -1.65152e-06     -13.7434 
          60     0.155744 -0.000194153 -2.14662e-06     -13.7434 
          60     0.173529 -0.000200765 -2.73731e-06     -13.7434 
          60     0.192276 -0.000205852 -3.43041e-06     -13.7434 
          60     0.211984 -0.000209426 -4.23131e-06     -13.7434 
          60     0.232655 -0.000211493 -5.14386e-06     -13.7434 
          60     0.254285 -0.000212439 -6.16909e-06     -13.7434 
          60     0.276877 -0.000212282 -7.30984e-06     -13.7434 
          60     0.300431  -0.00021133 -8.56511e-06     -13.7434 
          60     0.324946 -0.000209792 -9.93142e-06     -13.7434 
          60     0.350424 -0.000207882 -1.14057e-05     -13.7434 
          60     0.376861 -0.000205807 -1.29846e-05     -13.7434 
          60      0.40426 -0.000203757 -1.46644e-05     -13.7434 
          60     0.432621 -0.000201897 -1.64403e-05     -13.7434 
          60     0.461945 -0.000200355 -1.83056e-05     -13.7434 
          60     0.492228 -0.000199221 -2.02516e-05     -13.7434 
          60     0.523472 -0.000198541 -2.22687e-05     -13.7434 
          60     0.555678 -0.000198311 -2.43475e-05     -13.7434 
          60     0.588845 -0.000198483 -2.64825e-05     -13.7434 
          60     0.622976 -0.000198915 -2.86687e-05     -13.7434 
          60     0.658066 -0.000199553 -3.08691e-05     -13.7434 
          60     0.694117 -0.000200231 -3.30758e-05     -13.7434 
          60      0.73113 -0.000200654 -3.52787e-05     -13.7434 
          60     0.769107 -0.000200563 -3.74657e-05     -13.7434 
          60     0.808042 -0.000199741 -3.96221e-05     -13.7434 
          60     0.847939 -0.000198022 -4.17329e-05     -13.7434 
          60     0.888797 -0.000195294 -4.37829e-05     -13.7434 
          60      0.93062 -0.000191501 -4.57582e-05     -13.7434 
          60       0.9734 -0.000186643 -4.76469e-05     -13.7434 
          60      1.01714 -0.000180775 -4.94408e-05     -13.7434 
          60      1.06185 -0.000173999 -5.11358e-05     -13.7434 
          60      1.10751 -0.000166455 -5.27326e-05     -13.7434 
          60      1.15414 -0.000158311  -5.4237e-05     -13.7434 
          60      1.20173 -0.000149747 -5.56577e-05     -13.7434 
          60      1.25028 -0.000140931 -5.70057e-05     -13.7434 
          60      1.29979 -0.000131999   -5.829e-05     -13.7434 