Variables = x, y, u, v, p

Zone, I=416, F=POINT
         -50            0 -3.18642e-21  1.47325e-23      34.4977 
         -50     0.013333 -2.39153e-05  -4.8805e-09      34.4977 
         -50     0.053333 -2.52638e-05 -1.91251e-07      34.4977 
         -50         0.12 -9.65322e-06 -7.90831e-07      34.4977 
         -50     0.213332   8.8692e-06 -1.88557e-06      34.4977 
         -50     0.333332  2.53922e-05 -3.00401e-06      34.4977 
         -50         0.48  3.56413e-05 -4.09506e-06      34.4976 
         -50     0.653331  3.81753e-05 -6.80839e-06      34.4975 
         -50     0.853332  3.12984e-05 -8.56505e-06      34.4973 
         -50         1.08  1.79567e-05 -1.02901e-05      34.4971 
         -50      1.33333  5.71395e-07 -1.17587e-05      34.4967 
         -50      1.61333 -1.88949e-05 -1.28537e-05      34.4963 
         -50         1.92 -3.15126e-05  -1.2606e-05      34.4957 
         -50      2.25333   -3.496e-05 -1.19062e-05      34.4949 
         -50      2.61333 -3.99068e-05  -1.4735e-05      34.4939 
         -50            3 -4.99884e-05 -2.15359e-05      34.4927 
         -25            0           -0           -0      33.1076 
         -25     0.013333 -1.86604e-05 -1.47832e-08      33.1076 
         -25     0.053333 -1.94898e-05 -2.73917e-07      33.1076 
         -25         0.12 -2.03497e-07  -1.2069e-06      33.1076 
         -25     0.213332  3.03052e-05 -3.12233e-06      33.1076 
         -25     0.333332  6.28324e-05 -5.97093e-06      33.1076 
         -25         0.48  8.68516e-05 -9.42895e-06      33.1076 
         -25     0.653331  9.60312e-05 -1.33698e-05      33.1075 
         -25     0.853332  8.81453e-05  -1.7847e-05      33.1075 
         -25         1.08  6.88435e-05 -2.22631e-05      33.1074 
         -25      1.33333  4.61279e-05  -2.5928e-05      33.1073 
         -25      1.61333  2.16699e-05 -2.84365e-05      33.1071 
         -25         1.92 -7.50579e-06 -3.00164e-05      33.1068 
         -25      2.25333 -2.84836e-05 -2.91562e-05      33.1065 
         -25      2.61333 -3.77269e-05 -2.67231e-05      33.1062 
         -25            3 -4.17656e-05 -2.60979e-05      33.1057 
           0            0            0            0      31.9623 
           0     0.013333 -0.000130033   2.6534e-05      31.9638 
           0     0.053333 -6.59858e-05  3.16783e-05      31.9661 
           0         0.12 -3.27795e-05  1.92443e-05      31.9687 
           0     0.213332 -4.04282e-06  1.54971e-05      31.9715 
           0     0.333332  2.25845e-05  1.03795e-05      31.9744 
           0         0.48  4.05847e-05  5.39381e-06      31.9773 
           0     0.653331  4.79965e-05  6.70786e-08      31.9802 
           0     0.853332  4.45465e-05 -5.51478e-06      31.9831 
           0         1.08  3.43933e-05   -1.106e-05      31.9858 
           0      1.33333  2.19167e-05 -1.60216e-05      31.9885 
           0      1.61333  6.84679e-06 -1.98803e-05      31.9911 
           0         1.92 -7.38375e-06 -2.21991e-05      31.9935 
           0      2.25333  -1.5596e-05 -2.26928e-05      31.9958 
           0      2.61333 -1.55863e-05 -2.11823e-05      31.9978 
           0            3 -1.26607e-05   -2.025e-05      31.9997 
          20            0            0            0      31.2646 
          20     0.013333 -2.16697e-05 -1.78416e-09      31.2646 
          20     0.053333 -4.32607e-05 -7.05709e-08      31.2646 
          20         0.12  -6.0111e-05 -3.82001e-07      31.2646 
          20     0.213332 -7.15617e-05 -1.19018e-06      31.2646 
          20     0.333332 -7.68542e-05  -2.6222e-06      31.2646 
          20         0.48 -7.89751e-05 -4.55389e-06      31.2646 
          20     0.653331 -7.85935e-05 -6.78425e-06      31.2646 
          20     0.853332 -7.52739e-05 -9.18531e-06      31.2645 
          20         1.08 -6.68332e-05   -1.148e-05      31.2645 
          20      1.33333 -5.44515e-05 -1.32663e-05      31.2644 
          20      1.61333 -4.20661e-05 -1.43834e-05      31.2643 
          20         1.92 -3.19782e-05 -1.47642e-05      31.2642 
          20      2.25333 -2.46016e-05 -1.41762e-05       31.264 
          20      2.61333 -1.67953e-05 -1.25372e-05      31.2638 
          20            3 -8.14575e-06 -1.06836e-05      31.2636 
          40            0            0            0      30.5416 
          40     0.013333 -1.92129e-05 -2.48015e-08      30.5416 
          40     0.053333 -3.01192e-05 -4.00077e-07      30.5416 
          40         0.12  -1.9008e-05 -1.87142e-06      30.5416 
          40     0.213332  1.06812e-05 -5.06155e-06      30.5416 
          40     0.333332  4.25149e-05 -9.86127e-06      30.5416 
          40         0.48  5.98403e-05 -1.56503e-05      30.5415 
          40     0.653331  5.95149e-05 -2.19005e-05      30.5415 
          40     0.853332  4.88829e-05 -2.80986e-05      30.5415 
          40         1.08  3.77149e-05 -3.35767e-05      30.5415 
          40      1.33333  2.80015e-05 -3.78705e-05      30.5415 
          40      1.61333  1.71875e-05 -4.06803e-05      30.5414 
          40         1.92  1.32176e-06 -4.16296e-05      30.5414 
          40      2.25333 -1.44266e-05 -4.06208e-05      30.5413 
          40      2.61333 -2.82093e-05 -3.83303e-05      30.5413 
          40            3 -3.85856e-05 -3.52755e-05      30.5412 
          60            0           -0           -0      29.8553 
          60     0.013333 -2.18871e-05 -3.35477e-08      29.8553 
          60     0.053333 -4.03238e-05  -5.1062e-07      29.8553 
          60         0.12 -3.88104e-05 -2.27962e-06      29.8553 
          60     0.213332 -1.92222e-05 -5.94826e-06      29.8553 
          60     0.333332  4.16708e-06 -1.14125e-05      29.8553 
          60         0.48  1.63038e-05 -1.82525e-05      29.8553 
          60     0.653331  1.08001e-05 -2.62734e-05      29.8553 
          60     0.853332  -9.4862e-06  -3.5177e-05      29.8553 
          60         1.08 -2.77766e-05 -4.38133e-05      29.8552 
          60      1.33333 -3.30588e-05 -5.08984e-05      29.8552 
          60      1.61333 -3.21512e-05 -5.59015e-05      29.8552 
          60         1.92 -2.79145e-05 -5.82504e-05      29.8552 
          60      2.25333 -2.03846e-05 -5.78551e-05      29.8551 
          60      2.61333 -1.35773e-05 -5.52369e-05      29.8551 
          60            3 -9.75013e-06 -5.13212e-05       29.855 
          80            0           -0           -0      29.1902 
          80     0.013333 -7.53821e-06 -1.92604e-08      29.1902 
          80     0.053333  4.70169e-06 -2.61846e-07      29.1902 
          80         0.12  2.75225e-05 -9.67092e-07      29.1902 
          80     0.213332  4.17228e-05 -1.92508e-06      29.1902 
          80     0.333332  3.91577e-05 -2.58443e-06      29.1902 
          80         0.48   2.4519e-05 -2.71281e-06      29.1902 
          80     0.653331  5.67364e-06 -2.63146e-06      29.1902 
          80     0.853332 -1.41277e-05 -2.71718e-06      29.1902 
          80         1.08 -2.87765e-05 -2.75912e-06      29.1902 
          80      1.33333 -3.48895e-05 -2.38931e-06      29.1902 
          80      1.61333 -3.91235e-05 -1.67597e-06      29.1901 
          80         1.92 -4.29071e-05 -8.23297e-07      29.1901 
          80      2.25333 -4.33458e-05  1.79876e-07      29.1901 
          80      2.61333 -3.71576e-05  1.33781e-06      29.1901 
          80            3 -2.40314e-05  2.94564e-06        29.19 
         100            0            0            0      28.5385 
         100     0.013333  8.72638e-06 -4.15794e-08      28.5385 
         100     0.053333  6.77231e-05 -5.62145e-07      28.5385 
         100         0.12  0.000157192 -2.10737e-06      28.5385 
         100     0.213332  0.000235298 -4.30723e-06      28.5385 
         100     0.333332  0.000274445 -5.93643e-06      28.5385 
         100         0.48  0.000277952 -6.11495e-06      28.5385 
         100     0.653331  0.000262371  -5.0668e-06      28.5385 
         100     0.853332  0.000231292 -3.76365e-06      28.5385 
         100         1.08  0.000184633 -2.72652e-06      28.5385 
         100      1.33333  0.000132113 -1.75418e-06      28.5385 
         100      1.61333  7.64713e-05 -5.39925e-07      28.5385 
         100         1.92  1.49297e-05  6.28303e-07      28.5384 
         100      2.25333  -3.7454e-05  1.74974e-06      28.5384 
         100      2.61333  -7.4571e-05   2.8689e-06      28.5384 
         100            3 -9.71914e-05  3.76382e-06      28.5384 
         150            0           -0           -0      26.9403 
         150     0.013333 -2.26014e-06  3.47931e-10      26.9403 
         150     0.053333  1.99421e-05  1.64174e-08      26.9403 
         150         0.12    5.156e-05  1.47457e-07      26.9403 
         150     0.213332  7.58333e-05  6.08525e-07      26.9403 
         150     0.333332  8.83745e-05  1.64462e-06      26.9403 
         150         0.48  9.17384e-05  3.44019e-06      26.9403 
         150     0.653331  9.21996e-05  6.06583e-06      26.9403 
         150     0.853332  9.18966e-05  9.32663e-06      26.9403 
         150         1.08  8.44024e-05   1.2635e-05      26.9403 
         150      1.33333  6.51746e-05  1.53622e-05      26.9403 
         150      1.61333  3.98271e-05  1.74027e-05      26.9403 
         150         1.92  1.21376e-05  1.86625e-05      26.9403 
         150      2.25333 -1.20084e-05  1.90102e-05      26.9403 
         150      2.61333 -3.00419e-05  1.85895e-05      26.9403 
         150            3 -4.28039e-05  1.74678e-05      26.9402 
         200            0 -1.44227e-20  7.04049e-26      25.3621 
         200     0.013333  -2.6324e-05 -2.55031e-08      25.3621 
         200     0.053333 -5.86157e-05 -4.00392e-07      25.3621 
         200         0.12 -7.25276e-05 -1.91544e-06      25.3621 
         200     0.213332  -5.7032e-05 -5.43417e-06      25.3621 
         200     0.333332 -2.07749e-05 -1.13138e-05      25.3621 
         200         0.48  1.45357e-05 -1.92688e-05      25.3621 
         200     0.653331  3.41275e-05 -2.87921e-05      25.3621 
         200     0.853332  3.44609e-05 -3.94617e-05      25.3621 
         200         1.08  2.26781e-05 -5.06472e-05      25.3621 
         200      1.33333   1.1695e-05 -6.13163e-05      25.3621 
         200      1.61333  4.53198e-06 -7.04799e-05      25.3621 
         200         1.92 -4.49439e-06 -7.72727e-05      25.3621 
         200      2.25333 -1.47624e-05 -8.11301e-05      25.3621 
         200      2.61333 -2.38906e-05 -8.17729e-05      25.3621 
         200            3 -2.94603e-05 -7.94289e-05      25.3621 
         250            0           -0           -0       23.791 
         250     0.013333 -3.69033e-05  2.96515e-08       23.791 
         250     0.053333 -0.000110894  3.91888e-07       23.791 
         250         0.12 -0.000206958  1.42858e-06       23.791 
         250     0.213332 -0.000295269  2.79689e-06       23.791 
         250     0.333332 -0.000348434  3.55425e-06       23.791 
         250         0.48 -0.000367663  2.99759e-06       23.791 
         250     0.653331  -0.00036825  1.22042e-06       23.791 
         250     0.853332 -0.000354843  -9.2676e-07       23.791 
         250         1.08 -0.000319476 -2.45478e-06       23.791 
         250      1.33333 -0.000264848 -3.05502e-06       23.791 
         250      1.61333 -0.000203819 -3.24455e-06       23.791 
         250         1.92 -0.000137995 -3.24765e-06       23.791 
         250      2.25333  -7.5025e-05 -2.95676e-06       23.791 
         250      2.61333 -1.92337e-05 -2.50318e-06       23.791 
         250            3  2.77688e-05 -1.80559e-06       23.791 
         300            0           -0           -0      22.2228 
         300     0.013333  1.94143e-05  2.38045e-09      22.2228 
         300     0.053333  9.36624e-05  9.87663e-08      22.2228 
         300         0.12  0.000174507  8.57074e-07      22.2228 
         300     0.213332  0.000211727   3.5361e-06      22.2228 
         300     0.333332   0.00019638  9.34823e-06      22.2228 
         300         0.48  0.000156541  1.84531e-05      22.2228 
         300     0.653331  0.000123049  2.99197e-05      22.2228 
         300     0.853332  0.000102291  4.23937e-05      22.2228 
         300         1.08  8.36143e-05  5.47162e-05      22.2228 
         300      1.33333  6.15546e-05  6.62523e-05      22.2228 
         300      1.61333  3.78951e-05  7.66153e-05      22.2228 
         300         1.92  1.31039e-05  8.49782e-05      22.2228 
         300      2.25333  -1.1392e-05  9.05969e-05      22.2228 
         300      2.61333 -3.40101e-05  9.29898e-05      22.2228 
         300            3 -5.22902e-05  9.20905e-05      22.2228 
         350            0           -0           -0      20.6556 
         350     0.013333  2.67124e-05 -2.57704e-08      20.6556 
         350     0.053333  0.000126982 -3.00073e-07      20.6556 
         350         0.12  0.000255089 -8.00368e-07      20.6556 
         350     0.213332  0.000349205 -4.97029e-07      20.6556 
         350     0.333332  0.000381744  2.09609e-06      20.6556 
         350         0.48  0.000371596  7.59498e-06      20.6556 
         350     0.653331   0.00035261  1.53092e-05      20.6556 
         350     0.853332  0.000333704   2.3671e-05      20.6556 
         350         1.08  0.000296604  3.08681e-05      20.6556 
         350      1.33333  0.000234791  3.60414e-05      20.6556 
         350      1.61333  0.000168854  3.98674e-05      20.6556 
         350         1.92  0.000104645  4.27197e-05      20.6556 
         350      2.25333  4.17481e-05  4.41978e-05      20.6556 
         350      2.61333 -1.80714e-05  4.41916e-05      20.6556 
         350            3 -7.09371e-05  4.27221e-05      20.6556 
         400            0           -0           -0      19.0889 
         400     0.013333  3.22397e-06 -2.89744e-08      19.0889 
         400     0.053333  4.56628e-05 -3.95103e-07      19.0889 
         400         0.12  0.000114106 -1.52321e-06      19.0889 
         400     0.213332  0.000177764 -3.27243e-06      19.0889 
         400     0.333332  0.000213391 -4.89649e-06      19.0889 
         400         0.48  0.000219331 -5.76327e-06      19.0889 
         400     0.653331  0.000209829 -5.92117e-06      19.0889 
         400     0.853332  0.000192643 -6.02314e-06      19.0889 
         400         1.08  0.000163358 -6.86528e-06      19.0889 
         400      1.33333  0.000123391  -8.5796e-06      19.0889 
         400      1.61333  8.55853e-05 -1.04384e-05      19.0889 
         400         1.92  5.07917e-05 -1.19601e-05      19.0889 
         400      2.25333  1.69916e-05 -1.30085e-05      19.0889 
         400      2.61333 -1.43659e-05  -1.3589e-05      19.0889 
         400            3 -3.96973e-05 -1.36968e-05      19.0889 
         450            0 -1.18631e-20  8.26467e-28      17.5225 
         450     0.013333 -4.03512e-05  9.37054e-09      17.5225 
         450     0.053333 -0.000119148   1.0481e-07      17.5225 
         450         0.12 -0.000211547  2.27673e-07      17.5225 
         450     0.213332 -0.000284072 -2.02337e-07      17.5225 
         450     0.333332  -0.00031157 -2.14826e-06      17.5225 
         450         0.48 -0.000299775 -6.28979e-06      17.5225 
         450     0.653331 -0.000271844 -1.25875e-05      17.5225 
         450     0.853332 -0.000245444 -2.04762e-05      17.5225 
         450         1.08 -0.000223405 -2.92653e-05      17.5225 
         450      1.33333 -0.000198983 -3.82689e-05      17.5225 
         450      1.61333 -0.000166301 -4.67973e-05      17.5225 
         450         1.92 -0.000127511 -5.43759e-05      17.5225 
         450      2.25333 -8.62079e-05 -6.04888e-05      17.5225 
         450      2.61333 -4.52623e-05 -6.47376e-05      17.5225 
         450            3 -7.69444e-06 -6.68429e-05      17.5225 
         500            0            0            0      15.9568 
         500     0.013333   3.7574e-05   5.4513e-09      15.9568 
         500     0.053333  0.000159674  1.51684e-07      15.9568 
         500         0.12  0.000301216     1.14e-06      15.9568 
         500     0.213332     0.000392  4.44376e-06      15.9568 
         500     0.333332  0.000409608  1.15299e-05      15.9568 
         500         0.48  0.000381671  2.28336e-05      15.9568 
         500     0.653331  0.000350764  3.76945e-05      15.9568 
         500     0.853332  0.000336825  5.48783e-05      15.9568 
         500         1.08  0.000326483  7.27104e-05      15.9568 
         500      1.33333  0.000294113  8.94147e-05      15.9568 
         500      1.61333  0.000238676  0.000104083      15.9568 
         500         1.92  0.000177412  0.000116589      15.9568 
         500      2.25333   0.00011418  0.000126114      15.9568 
         500      2.61333  5.03736e-05  0.000132032      15.9568 
         500            3  -9.9479e-06   0.00013391      15.9568 
         550            0           -0           -0      14.3912 
         550     0.013333 -3.04181e-06  1.26637e-08      14.3912 
         550     0.053333   1.0219e-05     2.21e-07      14.3912 
         550         0.12    1.165e-05   1.2044e-06      14.3912 
         550     0.213332 -2.25218e-05  3.85379e-06      14.3912 
         550     0.333332 -8.42054e-05  8.78076e-06      14.3912 
         550         0.48 -0.000144765  1.57269e-05      14.3912 
         550     0.653331 -0.000181251  2.37103e-05      14.3912 
         550     0.853332 -0.000194056  3.16251e-05      14.3912 
         550         1.08 -0.000197986  3.86649e-05      14.3912 
         550      1.33333 -0.000198805  4.46868e-05      14.3912 
         550      1.61333 -0.000187163  5.02127e-05      14.3912 
         550         1.92 -0.000162693  5.53284e-05      14.3912 
         550      2.25333 -0.000132447  5.95577e-05      14.3912 
         550      2.61333 -9.96204e-05  6.23847e-05      14.3912 
         550            3 -6.53474e-05  6.35107e-05      14.3912 
         600            0           -0           -0       12.826 
         600     0.013333 -5.28554e-05  -7.8013e-08       12.826 
         600     0.053333 -0.000138068 -1.21411e-06       12.826 
         600         0.12 -0.000173848 -5.76103e-06       12.826 
         600     0.213332 -0.000114838 -1.62361e-05       12.826 
         600     0.333332  1.02368e-05 -3.35944e-05       12.826 
         600         0.48   0.00012972 -5.67849e-05       12.826 
         600     0.653331  0.000194487 -8.40954e-05       12.826 
         600     0.853332  0.000194695 -0.000114423       12.826 
         600         1.08  0.000147454 -0.000146867       12.826 
         600      1.33333  9.28915e-05 -0.000179469       12.826 
         600      1.61333  6.44156e-05 -0.000209707       12.826 
         600         1.92  4.79934e-05 -0.000236065       12.826 
         600      2.25333  3.07779e-05 -0.000257268       12.826 
         600      2.61333  1.17765e-05 -0.000271951       12.826 
         600            3 -6.18744e-06 -0.000278933       12.826 
         650            0            0            0      11.2611 
         650     0.013333    2.484e-05  3.54893e-08      11.2611 
         650     0.053333  0.000106268  5.65069e-07      11.2611 
         650         0.12  0.000182203  2.77373e-06      11.2611 
         650     0.213332  0.000200769  8.14902e-06      11.2611 
         650     0.333332  0.000160768  1.76516e-05      11.2611 
         650         0.48  9.62311e-05  3.12221e-05      11.2611 
         650     0.653331  4.30123e-05  4.81239e-05      11.2611 
         650     0.853332  1.84235e-05  6.76132e-05      11.2611 
         650         1.08  2.29344e-05  8.91359e-05      11.2611 
         650      1.33333  4.08886e-05  0.000111696      11.2611 
         650      1.61333   4.7486e-05  0.000133645      11.2611 
         650         1.92  3.81683e-05  0.000153272      11.2611 
         650      2.25333  2.41178e-05  0.000169691      11.2611 
         650      2.61333  1.01734e-05  0.000181974      11.2611 
         650            3 -3.90179e-06  0.000189166      11.2611 
         700            0            0            0      9.69621 
         700     0.013333 -6.24648e-05  3.63853e-08      9.69621 
         700     0.053333 -0.000207825  4.85171e-07      9.69621 
         700         0.12 -0.000402137  1.77526e-06      9.69621 
         700     0.213332 -0.000583349  3.37838e-06      9.69621 
         700     0.333332 -0.000691224  3.70669e-06      9.69621 
         700         0.48 -0.000716372  1.27021e-06      9.69621 
         700     0.653331 -0.000692894 -4.19426e-06      9.69621 
         700     0.853332 -0.000654602 -1.17099e-05      9.69621 
         700         1.08 -0.000607046 -1.97635e-05      9.69621 
         700      1.33333 -0.000541647  -2.7282e-05      9.69621 
         700      1.61333 -0.000461523 -3.40188e-05      9.69621 
         700         1.92 -0.000376139 -4.02407e-05      9.69621 
         700      2.25333 -0.000285263 -4.57557e-05      9.69622 
         700      2.61333  -0.00018982 -5.01995e-05      9.69622 
         700            3 -9.44282e-05 -5.32716e-05      9.69623 
         750            0           -0           -0       8.1321 
         750     0.013333  1.62437e-05 -5.81919e-08       8.1321 
         750     0.053333  0.000102971 -8.26797e-07       8.1321 
         750         0.12  0.000252218 -3.42173e-06       8.1321 
         750     0.213332  0.000418478 -8.14675e-06       8.1321 
         750     0.333332  0.000544897  -1.3957e-05       8.1321 
         750         0.48  0.000603821 -1.93794e-05       8.1321 
         750     0.653331  0.000610372 -2.38101e-05      8.13211 
         750     0.853332   0.00058846 -2.78868e-05      8.13211 
         750         1.08  0.000541102 -3.29167e-05      8.13211 
         750      1.33333  0.000463467 -3.96935e-05      8.13211 
         750      1.61333  0.000372368 -4.75495e-05       8.1321 
         750         1.92  0.000289706  -5.4914e-05       8.1321 
         750      2.25333  0.000209567 -6.12875e-05       8.1321 
         750      2.61333  0.000126554  -6.6254e-05      8.13209 
         750            3  4.26348e-05 -6.94861e-05      8.13209 
         800            0            0            0      6.56759 
         800     0.013333 -1.99377e-05  4.14102e-08      6.56759 
         800     0.053333 -5.63994e-05  6.02556e-07      6.56759 
         800         0.12 -0.000124326  2.59464e-06      6.56759 
         800     0.213332 -0.000216463  6.53313e-06      6.56759 
         800     0.333332 -0.000298992  1.20325e-05      6.56759 
         800         0.48 -0.000347679  1.82141e-05      6.56759 
         800     0.653331 -0.000362744  2.45368e-05      6.56758 
         800     0.853332 -0.000354995  3.11784e-05      6.56758 
         800         1.08 -0.000326899  3.87831e-05      6.56758 
         800      1.33333 -0.000277911   4.7709e-05      6.56758 
         800      1.61333 -0.000222058  5.72467e-05      6.56759 
         800         1.92 -0.000176564  6.61685e-05      6.56759 
         800      2.25333  -0.00013496  7.38082e-05      6.56759 
         800      2.61333  -9.1856e-05  7.98632e-05      6.56759 
         800            3 -4.84962e-05  8.39689e-05      6.56759 
         850            0           -0           -0      5.00367 
         850     0.013333 -1.81207e-05 -1.82374e-08      5.00367 
         850     0.053333 -3.23031e-05 -2.74877e-07      5.00367 
         850         0.12 -3.11772e-05 -1.25032e-06      5.00367 
         850     0.213332 -1.32804e-05 -3.37624e-06      5.00367 
         850     0.333332  1.40236e-05 -6.73334e-06      5.00367 
         850         0.48  3.73358e-05 -1.10673e-05      5.00367 
         850     0.653331  4.97614e-05 -1.60917e-05      5.00367 
         850     0.853332  5.07156e-05  -2.1728e-05      5.00367 
         850         1.08  4.05911e-05 -2.80678e-05      5.00367 
         850      1.33333  2.20023e-05 -3.50525e-05      5.00367 
         850      1.61333  4.14514e-06 -4.21749e-05      5.00367 
         850         1.92 -5.14504e-06 -4.87385e-05      5.00367 
         850      2.25333 -1.02819e-05 -5.43855e-05      5.00367 
         850      2.61333 -1.49619e-05 -5.89093e-05      5.00366 
         850            3 -1.94945e-05 -6.20222e-05      5.00366 
         900            0           -0           -0      3.43983 
         900     0.013333 -8.11881e-06  2.36848e-09      3.43983 
         900     0.053333 -2.32306e-06  3.88636e-08      3.43983 
         900         0.12  8.31226e-06  1.97418e-07      3.43983 
         900     0.213332   1.3922e-05  5.96408e-07      3.43983 
         900     0.333332  1.42801e-05  1.31615e-06      3.43983 
         900         0.48  1.16877e-05  2.35526e-06      3.43983 
         900     0.653331  9.24128e-06  3.66069e-06      3.43983 
         900     0.853332  8.56113e-06  5.18896e-06      3.43983 
         900         1.08  9.89979e-06  6.90115e-06      3.43983 
         900      1.33333  1.18754e-05  8.73232e-06      3.43983 
         900      1.61333  1.16126e-05  1.03933e-05      3.43983 
         900         1.92  7.79251e-06  1.20286e-05      3.43983 
         900      2.25333  2.94479e-06  1.31126e-05      3.43983 
         900      2.61333 -1.84095e-06  1.40011e-05      3.43983 
         900            3 -6.67944e-06  1.48995e-05      3.43983 
         950            0           -0           -0      1.87618 
         950     0.013333 -1.25338e-05  2.64539e-10      1.87618 
         950     0.053333 -1.76706e-05  3.38991e-09      1.87618 
         950         0.12 -1.87542e-05  1.12254e-08      1.87618 
         950     0.213332 -2.03364e-05  1.74984e-08      1.87618 
         950     0.333332 -2.12854e-05   1.0789e-08      1.87618 
         950         0.48   -2.177e-05 -1.61472e-08      1.87618 
         950     0.653331 -2.19525e-05  -6.4406e-08      1.87618 
         950     0.853332 -2.21419e-05 -1.20752e-07      1.87618 
         950         1.08 -2.24063e-05 -1.86953e-07      1.87618 
         950      1.33333 -2.25085e-05  -2.5053e-07      1.87618 
         950      1.61333 -2.21822e-05 -2.37916e-07      1.87618 
         950         1.92 -2.13196e-05 -2.56575e-07      1.87618 
         950      2.25333 -2.03976e-05 -1.79809e-07      1.87618 
         950      2.61333 -1.94847e-05 -1.22008e-07      1.87618 
         950            3 -1.83561e-05 -1.24008e-07      1.87618 
        1000            0 -1.67707e-21  4.79144e-28     0.312691 
        1000     0.013333 -1.20363e-05 -6.34738e-11     0.312691 
        1000     0.053333 -1.58319e-05 -8.67485e-10     0.312691 
        1000         0.12 -1.51114e-05  -3.4315e-09     0.312691 
        1000     0.213332 -1.50546e-05 -8.07606e-09     0.312691 
        1000     0.333332 -1.49867e-05 -1.43605e-08     0.312691 
        1000         0.48 -1.50742e-05 -2.18703e-08     0.312691 
        1000     0.653331 -1.51729e-05  -3.0191e-08     0.312691 
        1000     0.853332 -1.53044e-05 -3.91111e-08     0.312691 
        1000         1.08 -1.54855e-05  -4.8756e-08     0.312691 
        1000      1.33333 -1.57534e-05 -5.18112e-08     0.312691 
        1000      1.61333 -1.61012e-05 -8.87972e-08     0.312691 
        1000         1.92 -1.64799e-05 -1.06077e-07     0.312691 
        1000      2.25333 -1.68376e-05 -1.35904e-07     0.312691 
        1000      2.61333 -1.71366e-05  -1.6652e-07     0.312691 
        1000            3 -1.73509e-05 -1.63246e-07     0.312691 
