Variables = x, y, u, v, p

Zone, I=2080, F=POINT
         -50            0  1.64851e-19  -6.7698e-24     -20.7209 
         -50      0.00048  1.64129e-05 -6.54654e-10     -20.7209 
         -50     0.001922  5.79835e-05 -2.09468e-09     -20.7209 
         -50     0.004326  0.000105581 -3.07275e-09     -20.7209 
         -50      0.00769  0.000138903 -2.45933e-09     -20.7209 
         -50     0.012017  0.000147509 -1.52587e-10     -20.7209 
         -50     0.017304  0.000136131  2.43692e-09     -20.7209 
         -50     0.023553  0.000120583  2.65573e-09     -20.7209 
         -50     0.030763  0.000115423 -2.48017e-09     -20.7209 
         -50     0.038936  0.000121367 -1.53281e-08     -20.7209 
         -50     0.048069   0.00012449 -3.75101e-08     -20.7209 
         -50     0.058163  0.000114816 -7.11807e-08     -20.7209 
         -50     0.069219  0.000109881 -1.20287e-07     -20.7209 
         -50     0.081236  0.000117156 -1.86205e-07     -20.7209 
         -50     0.094215  0.000111705 -2.70791e-07     -20.7209 
         -50     0.108155  0.000111648 -3.77785e-07     -20.7209 
         -50     0.123056  0.000111042   -5.077e-07     -20.7209 
         -50     0.138918  0.000110825 -6.61544e-07     -20.7209 
         -50     0.155744  0.000111171 -8.39475e-07     -20.7209 
         -50     0.173529  0.000111779 -1.04053e-06     -20.7209 
         -50     0.192276  0.000112346 -1.26265e-06     -20.7209 
         -50     0.211984  0.000112977 -1.50244e-06     -20.7209 
         -50     0.232655  0.000114024   -1.755e-06     -20.7209 
         -50     0.254285  0.000114813  -2.0143e-06     -20.7209 
         -50     0.276877  0.000115755 -2.27584e-06     -20.7209 
         -50     0.300431  0.000116595 -2.52138e-06     -20.7209 
         -50     0.324946  0.000117325 -2.74881e-06     -20.7209 
         -50     0.350424  0.000117935  -2.9744e-06     -20.7209 
         -50     0.376861   0.00011842  -3.2278e-06     -20.7209 
         -50      0.40426  0.000118773  -3.5445e-06     -20.7209 
         -50     0.432621  0.000118993 -3.95557e-06     -20.7209 
         -50     0.461945  0.000119083 -4.47647e-06     -20.7209 
         -50     0.492228   0.00011905 -5.09638e-06     -20.7208 
         -50     0.523472  0.000118909 -5.77168e-06     -20.7208 
         -50     0.555678  0.000118681 -6.42693e-06     -20.7208 
         -50     0.588845  0.000118394 -6.96945e-06     -20.7208 
         -50     0.622976  0.000118073 -7.31796e-06     -20.7208 
         -50     0.658066  0.000117787 -7.61542e-06     -20.7208 
         -50     0.694117  0.000117601  -7.9339e-06     -20.7208 
         -50      0.73113  0.000117548 -8.26318e-06     -20.7207 
         -50     0.769107  0.000117651 -8.59291e-06     -20.7207 
         -50     0.808042  0.000117922 -8.91296e-06     -20.7207 
         -50     0.847939  0.000118364   -9.214e-06     -20.7207 
         -50     0.888797  0.000118968 -9.48783e-06     -20.7206 
         -50      0.93062  0.000119718 -9.72797e-06     -20.7206 
         -50       0.9734  0.000120589 -9.92993e-06     -20.7206 
         -50      1.01714  0.000121552 -1.00918e-05     -20.7206 
         -50      1.06185  0.000122573 -1.02142e-05     -20.7205 
         -50      1.10751  0.000123619 -1.03007e-05     -20.7205 
         -50      1.15414  0.000124657 -1.03574e-05     -20.7205 
         -50      1.20173   0.00012566 -1.03923e-05     -20.7204 
         -50      1.25028   0.00012661 -1.04149e-05     -20.7204 
         -50      1.29979  0.000127496 -1.04342e-05     -20.7203 
         -50      1.35026  0.000128318 -1.04567e-05     -20.7203 
         -50       1.4017  0.000129085 -1.04839e-05     -20.7202 
         -50      1.45409  0.000129813 -1.05076e-05     -20.7202 
         -50      1.50745  0.000130499 -1.05003e-05     -20.7201 
         -50      1.56176  0.000130501 -1.02508e-05     -20.7201 
         -50      1.61705  0.000131124 -1.00591e-05       -20.72 
         -50      1.67329  0.000132108 -9.91088e-06       -20.72 
         -50      1.73049  0.000133227 -9.79288e-06     -20.7199 
         -50      1.78865  0.000134296 -9.69286e-06     -20.7198 
         -50      1.84778   0.00013517 -9.59995e-06     -20.7197 
         -50      1.90786   0.00013574 -9.50472e-06     -20.7197 
         -50      1.96891  0.000135938 -9.39929e-06     -20.7196 
         -50      2.03092  0.000135734 -9.27742e-06     -20.7195 
         -50      2.09389  0.000135128 -9.13457e-06     -20.7194 
         -50      2.15782  0.000134153 -8.96795e-06     -20.7193 
         -50      2.22272  0.000132865 -8.77643e-06     -20.7192 
         -50      2.28857  0.000131341 -8.56058e-06     -20.7191 
         -50      2.35539  0.000129672 -8.32246e-06      -20.719 
         -50      2.42317  0.000127957 -8.06552e-06     -20.7189 
         -50      2.49191  0.000126295 -7.79448e-06     -20.7188 
         -50      2.56161  0.000124779 -7.51488e-06     -20.7187 
         -50      2.63226  0.000123489 -7.23289e-06     -20.7185 
         -50      2.70389  0.000122487 -6.95486e-06     -20.7184 
         -50      2.77648  0.000121809 -6.68694e-06     -20.7183 
         -50      2.85002  0.000121465 -6.43446e-06     -20.7181 
         -50      2.92453  0.000121434 -6.20139e-06      -20.718 
         -50            3  0.000121663 -5.98961e-06     -20.7178 
         -25            0           -0           -0      -19.886 
         -25      0.00048  1.23785e-05 -1.46304e-10      -19.886 
         -25     0.001922  4.38946e-05 -1.54285e-10      -19.886 
         -25     0.004326  8.05181e-05  1.14946e-09      -19.886 
         -25      0.00769  0.000107333  5.37044e-09      -19.886 
         -25     0.012017  0.000116612   1.4223e-08      -19.886 
         -25     0.017304  0.000111697  2.93412e-08      -19.886 
         -25     0.023553  0.000104015   5.2399e-08      -19.886 
         -25     0.030763  0.000104065  8.54195e-08      -19.886 
         -25     0.038936  0.000112221  1.31118e-07      -19.886 
         -25     0.048069  0.000118153  1.92829e-07      -19.886 
         -25     0.058163   0.00011443  2.73971e-07      -19.886 
         -25     0.069219  0.000113753  3.77419e-07      -19.886 
         -25     0.081236  0.000121476  5.06938e-07      -19.886 
         -25     0.094215  0.000119298   6.6591e-07      -19.886 
         -25     0.108155   0.00012042  8.56759e-07      -19.886 
         -25     0.123056  0.000120485  1.08222e-06      -19.886 
         -25     0.138918  0.000120195  1.34417e-06      -19.886 
         -25     0.155744  0.000119726  1.64406e-06      -19.886 
         -25     0.173529  0.000118931   1.9826e-06      -19.886 
         -25     0.192276  0.000117679  2.35998e-06      -19.886 
         -25     0.211984   0.00011615  2.77567e-06      -19.886 
         -25     0.232655  0.000114712  3.22885e-06      -19.886 
         -25     0.254285  0.000112984  3.71918e-06      -19.886 
         -25     0.276877  0.000111372  4.24465e-06      -19.886 
         -25     0.300431  0.000109785  4.80224e-06      -19.886 
         -25     0.324946  0.000108295  5.39114e-06      -19.886 
         -25     0.350424  0.000106963  6.00965e-06      -19.886 
         -25     0.376861   0.00010583  6.65521e-06      -19.886 
         -25      0.40426  0.000104919  7.32497e-06      -19.886 
         -25     0.432621  0.000104241  8.01594e-06      -19.886 
         -25     0.461945  0.000103794   8.7254e-06      -19.886 
         -25     0.492228  0.000103572  9.45101e-06      -19.886 
         -25     0.523472  0.000103563   1.0191e-05      -19.886 
         -25     0.555678  0.000103748  1.09435e-05      -19.886 
         -25     0.588845  0.000104093  1.17054e-05     -19.8859 
         -25     0.622976  0.000104539  1.24637e-05     -19.8859 
         -25     0.658066  0.000105069  1.32012e-05     -19.8859 
         -25     0.694117  0.000105636  1.39294e-05     -19.8859 
         -25      0.73113  0.000106177  1.46529e-05     -19.8859 
         -25     0.769107   0.00010664  1.53735e-05     -19.8859 
         -25     0.808042  0.000106983  1.60903e-05     -19.8859 
         -25     0.847939  0.000107172  1.67997e-05     -19.8859 
         -25     0.888797  0.000107187  1.74967e-05     -19.8859 
         -25      0.93062  0.000107017  1.81751e-05     -19.8859 
         -25       0.9734   0.00010666  1.88284e-05     -19.8859 
         -25      1.01714  0.000106125  1.94508e-05     -19.8859 
         -25      1.06185  0.000105426   2.0038e-05     -19.8858 
         -25      1.10751  0.000104583   2.0588e-05     -19.8858 
         -25      1.15414  0.000103617  2.11009e-05     -19.8858 
         -25      1.20173  0.000102549  2.15793e-05     -19.8858 
         -25      1.25028  0.000101394  2.20272e-05     -19.8858 
         -25      1.29979  0.000100161  2.24478e-05     -19.8858 
         -25      1.35026  9.88484e-05  2.28406e-05     -19.8858 
         -25       1.4017  9.74409e-05  2.31961e-05     -19.8857 
         -25      1.45409  9.59097e-05  2.34887e-05     -19.8857 
         -25      1.50745  9.42351e-05  2.36739e-05     -19.8857 
         -25      1.56176  9.33802e-05  2.40482e-05     -19.8857 
         -25      1.61705  9.21345e-05  2.42686e-05     -19.8857 
         -25      1.67329  9.06465e-05  2.43656e-05     -19.8856 
         -25      1.73049  8.90566e-05  2.43692e-05     -19.8856 
         -25      1.78865  8.74953e-05  2.43079e-05     -19.8856 
         -25      1.84778  8.60813e-05   2.4209e-05     -19.8855 
         -25      1.90786  8.49194e-05  2.40974e-05     -19.8855 
         -25      1.96891  8.40984e-05  2.39961e-05     -19.8855 
         -25      2.03092  8.36898e-05  2.39249e-05     -19.8855 
         -25      2.09389  8.37464e-05  2.39007e-05     -19.8854 
         -25      2.15782  8.43008e-05  2.39371e-05     -19.8854 
         -25      2.22272   8.5365e-05  2.40438e-05     -19.8853 
         -25      2.28857  8.69294e-05  2.42265e-05     -19.8853 
         -25      2.35539  8.89631e-05  2.44869e-05     -19.8853 
         -25      2.42317  9.14147e-05  2.48225e-05     -19.8852 
         -25      2.49191  9.42116e-05  2.52263e-05     -19.8852 
         -25      2.56161   9.7264e-05  2.56871e-05     -19.8851 
         -25      2.63226  0.000100465  2.61897e-05     -19.8851 
         -25      2.70389  0.000103697   2.6715e-05      -19.885 
         -25      2.77648  0.000106829  2.72403e-05      -19.885 
         -25      2.85002  0.000109731  2.77401e-05     -19.8849 
         -25      2.92453  0.000112271  2.81865e-05     -19.8849 
         -25            3  0.000114329  2.85504e-05     -19.8848 
           0            0            0            0     -19.1999 
           0      0.00048   5.7969e-05 -3.47516e-05        -19.2 
           0     0.001922  0.000200284 -0.000118942        -19.2 
           0     0.004326  0.000349268 -0.000203702     -19.2001 
           0      0.00769  0.000425774 -0.000240652     -19.2003 
           0     0.012017  0.000395909 -0.000212116     -19.2005 
           0     0.017304  0.000291499 -0.000143366     -19.2008 
           0     0.023553  0.000187972 -8.60589e-05     -19.2011 
           0     0.030763  0.000147129 -7.85851e-05     -19.2014 
           0     0.038936  0.000162393 -0.000109411     -19.2016 
           0     0.048069  0.000162009  -0.00012172     -19.2019 
           0     0.058163  0.000101805 -8.13744e-05     -19.2021 
           0     0.069219  7.18042e-05 -5.67627e-05     -19.2024 
           0     0.081236  9.27209e-05 -8.99094e-05     -19.2028 
           0     0.094215  5.68733e-05 -6.91811e-05     -19.2031 
           0     0.108155  4.75401e-05 -6.51004e-05     -19.2034 
           0     0.123056  3.31669e-05 -6.08471e-05     -19.2037 
           0     0.138918  2.10064e-05 -5.73675e-05      -19.204 
           0     0.155744  1.27822e-05 -5.46442e-05     -19.2043 
           0     0.173529  6.60112e-06 -5.21101e-05     -19.2046 
           0     0.192276  2.93298e-07 -4.93092e-05     -19.2049 
           0     0.211984 -5.53294e-06 -4.64803e-05     -19.2053 
           0     0.232655 -8.24414e-06 -4.43999e-05     -19.2056 
           0     0.254285  -1.1244e-05 -4.25165e-05     -19.2059 
           0     0.276877 -1.25113e-05 -4.05863e-05     -19.2063 
           0     0.300431 -1.33228e-05 -3.88885e-05     -19.2066 
           0     0.324946 -1.35176e-05 -3.73345e-05     -19.2069 
           0     0.350424 -1.32298e-05 -3.59189e-05     -19.2072 
           0     0.376861 -1.25993e-05 -3.46266e-05     -19.2076 
           0      0.40426 -1.17344e-05 -3.34606e-05     -19.2079 
           0     0.432621 -1.07277e-05 -3.24113e-05     -19.2082 
           0     0.461945 -9.64364e-06 -3.14611e-05     -19.2086 
           0     0.492228 -8.52285e-06 -3.06031e-05     -19.2089 
           0     0.523472 -7.39451e-06 -2.98379e-05     -19.2092 
           0     0.555678  -6.2602e-06 -2.91473e-05     -19.2096 
           0     0.588845 -5.10739e-06 -2.85208e-05     -19.2099 
           0     0.622976 -3.90874e-06 -2.79596e-05     -19.2102 
           0     0.658066 -2.62053e-06 -2.74725e-05     -19.2106 
           0     0.694117 -1.21387e-06 -2.70055e-05     -19.2109 
           0      0.73113  3.76502e-07  -2.6589e-05     -19.2112 
           0     0.769107  2.17945e-06 -2.62116e-05     -19.2115 
           0     0.808042  4.20554e-06 -2.58691e-05     -19.2119 
           0     0.847939  6.51192e-06 -2.55264e-05     -19.2122 
           0     0.888797  9.07702e-06 -2.52137e-05     -19.2125 
           0      0.93062  1.18906e-05 -2.49234e-05     -19.2128 
           0       0.9734  1.49291e-05 -2.46475e-05     -19.2131 
           0      1.01714  1.81578e-05 -2.43803e-05     -19.2135 
           0      1.06185   2.1531e-05 -2.41202e-05     -19.2138 
           0      1.10751  2.49983e-05 -2.38694e-05     -19.2141 
           0      1.15414  2.85107e-05 -2.36332e-05     -19.2144 
           0      1.20173  3.20293e-05 -2.34151e-05     -19.2147 
           0      1.25028  3.55377e-05 -2.31984e-05      -19.215 
           0      1.29979  3.90435e-05 -2.29809e-05     -19.2153 
           0      1.35026   4.2543e-05 -2.27568e-05     -19.2156 
           0       1.4017  4.60444e-05 -2.25358e-05     -19.2159 
           0      1.45409  4.95676e-05 -2.23327e-05     -19.2162 
           0      1.50745  5.31384e-05 -2.21489e-05     -19.2165 
           0      1.56176  5.67857e-05 -2.19444e-05     -19.2168 
           0      1.61705  6.05241e-05 -2.16914e-05      -19.217 
           0      1.67329  6.42704e-05 -2.15132e-05     -19.2173 
           0      1.73049  6.79815e-05  -2.1275e-05     -19.2176 
           0      1.78865  7.16223e-05 -2.10124e-05     -19.2179 
           0      1.84778  7.51757e-05 -2.07414e-05     -19.2181 
           0      1.90786  7.86407e-05 -2.04641e-05     -19.2184 
           0      1.96891  8.20258e-05 -2.01749e-05     -19.2187 
           0      2.03092  8.53319e-05 -1.98687e-05     -19.2189 
           0      2.09389  8.85333e-05 -1.95482e-05     -19.2192 
           0      2.15782  9.16758e-05 -1.91982e-05     -19.2195 
           0      2.22272  9.47234e-05 -1.88366e-05     -19.2197 
           0      2.28857  9.75701e-05 -1.84866e-05     -19.2199 
           0      2.35539  0.000100088 -1.81731e-05     -19.2202 
           0      2.42317  0.000102149 -1.79199e-05     -19.2204 
           0      2.49191  0.000103639 -1.77511e-05     -19.2207 
           0      2.56161  0.000104474  -1.7701e-05     -19.2209 
           0      2.63226  0.000104608 -1.78324e-05     -19.2211 
           0      2.70389   0.00010399 -1.82125e-05     -19.2213 
           0      2.77648  0.000102531 -1.87857e-05     -19.2216 
           0      2.85002  0.000100421 -1.96248e-05     -19.2218 
           0      2.92453  9.78009e-05 -2.06991e-05      -19.222 
           0            3  9.48322e-05 -2.19821e-05     -19.2222 
          20            0            0            0     -18.7825 
          20      0.00048  8.75516e-06  -2.6527e-12     -18.7825 
          20     0.001922   3.0613e-05  1.15004e-09     -18.7825 
          20     0.004326  5.45787e-05   6.8131e-09     -18.7825 
          20      0.00769  6.89692e-05  2.21701e-08     -18.7825 
          20     0.012017  6.77332e-05  5.37848e-08     -18.7825 
          20     0.017304   5.3515e-05  1.09057e-07     -18.7825 
          20     0.023553   3.5312e-05  1.95887e-07     -18.7825 
          20     0.030763  2.14328e-05  3.22285e-07     -18.7825 
          20     0.038936  1.22918e-05  4.96103e-07     -18.7825 
          20     0.048069 -2.56485e-08  7.24353e-07     -18.7825 
          20     0.058163 -2.11192e-05  1.01261e-06     -18.7825 
          20     0.069219 -4.07733e-05  1.36424e-06     -18.7825 
          20     0.081236 -5.44868e-05  1.78092e-06     -18.7825 
          20     0.094215 -7.62614e-05  2.26187e-06     -18.7825 
          20     0.108155 -9.54026e-05  2.80349e-06     -18.7825 
          20     0.123056 -0.000114974  3.40043e-06     -18.7825 
          20     0.138918 -0.000134088   4.0451e-06     -18.7825 
          20     0.155744 -0.000152305  4.72854e-06     -18.7825 
          20     0.173529  -0.00016947  5.44042e-06     -18.7825 
          20     0.192276  -0.00018548  6.17024e-06     -18.7825 
          20     0.211984 -0.000200038  6.90743e-06     -18.7825 
          20     0.232655 -0.000212766   7.6422e-06     -18.7825 
          20     0.254285 -0.000223925  8.36594e-06     -18.7825 
          20     0.276877 -0.000233218  9.07101e-06     -18.7825 
          20     0.300431 -0.000240785  9.75215e-06     -18.7825 
          20     0.324946 -0.000246676  1.04065e-05     -18.7825 
          20     0.350424 -0.000250984  1.10321e-05     -18.7825 
          20     0.376861 -0.000253835  1.16279e-05     -18.7825 
          20      0.40426 -0.000255388  1.21937e-05     -18.7825 
          20     0.432621 -0.000255818  1.27298e-05     -18.7825 
          20     0.461945 -0.000255311  1.32369e-05     -18.7825 
          20     0.492228 -0.000254049  1.37152e-05     -18.7825 
          20     0.523472 -0.000252197  1.41645e-05     -18.7825 
          20     0.555678 -0.000249896  1.45832e-05     -18.7825 
          20     0.588845 -0.000247247  1.49674e-05     -18.7825 
          20     0.622976 -0.000244218   1.5314e-05     -18.7825 
          20     0.658066 -0.000240978   1.5629e-05     -18.7825 
          20     0.694117 -0.000237462  1.59117e-05     -18.7825 
          20      0.73113 -0.000233361  1.61646e-05     -18.7825 
          20     0.769107 -0.000228426  1.63927e-05     -18.7825 
          20     0.808042 -0.000222479  1.66032e-05     -18.7825 
          20     0.847939 -0.000215405  1.68045e-05     -18.7825 
          20     0.888797 -0.000207157  1.70053e-05     -18.7825 
          20      0.93062  -0.00019775  1.72137e-05     -18.7824 
          20       0.9734 -0.000187253   1.7436e-05     -18.7824 
          20      1.01714 -0.000175777  1.76759e-05     -18.7824 
          20      1.06185 -0.000163463  1.79334e-05     -18.7824 
          20      1.10751 -0.000150467  1.82045e-05     -18.7824 
          20      1.15414 -0.000136946  1.84811e-05     -18.7824 
          20      1.20173 -0.000123048  1.87518e-05     -18.7824 
          20      1.25028 -0.000108896  1.90039e-05     -18.7824 
          20      1.29979 -9.45883e-05  1.92266e-05     -18.7824 
          20      1.35026 -8.02005e-05   1.9416e-05     -18.7824 
          20       1.4017 -6.58111e-05  1.95822e-05     -18.7824 
          20      1.45409 -5.15271e-05  1.97602e-05     -18.7824 
          20      1.50745 -3.75252e-05  2.00175e-05     -18.7823 
          20      1.56176 -2.28413e-05  2.00611e-05     -18.7823 
          20      1.61705 -8.55198e-06  2.00903e-05     -18.7823 
          20      1.67329  5.32768e-06  2.01037e-05     -18.7823 
          20      1.73049  1.87805e-05  2.00997e-05     -18.7823 
          20      1.78865   3.1783e-05  2.00768e-05     -18.7823 
          20      1.84778  4.43074e-05  2.00334e-05     -18.7823 
          20      1.90786  5.63185e-05  1.99678e-05     -18.7822 
          20      1.96891  6.77805e-05   1.9878e-05     -18.7822 
          20      2.03092  7.86531e-05  1.97617e-05     -18.7822 
          20      2.09389  8.88953e-05  1.96163e-05     -18.7822 
          20      2.15782   9.8462e-05  1.94388e-05     -18.7822 
          20      2.22272  0.000107312  1.92254e-05     -18.7821 
          20      2.28857  0.000115404  1.89722e-05     -18.7821 
          20      2.35539  0.000122702  1.86744e-05     -18.7821 
          20      2.42317  0.000129173  1.83266e-05     -18.7821 
          20      2.49191  0.000134791  1.79231e-05      -18.782 
          20      2.56161   0.00013954  1.74576e-05      -18.782 
          20      2.63226  0.000143415  1.69233e-05      -18.782 
          20      2.70389   0.00014642  1.63135e-05      -18.782 
          20      2.77648  0.000148574  1.56216e-05     -18.7819 
          20      2.85002  0.000149912  1.48414e-05     -18.7819 
          20      2.92453  0.000150483  1.39675e-05     -18.7819 
          20            3  0.000150353  1.29964e-05     -18.7818 
          40            0            0            0     -18.3502 
          40      0.00048  8.23637e-06  1.56204e-11     -18.3502 
          40     0.001922  2.88559e-05  6.75322e-10     -18.3502 
          40     0.004326  5.16596e-05   3.7504e-09     -18.3502 
          40      0.00769  6.58221e-05  1.19729e-08     -18.3502 
          40     0.012017  6.57656e-05  2.87781e-08     -18.3502 
          40     0.017304  5.40028e-05  5.79691e-08     -18.3502 
          40     0.023553  3.89552e-05  1.03462e-07     -18.3502 
          40     0.030763  2.83986e-05  1.68982e-07     -18.3502 
          40     0.038936  2.27595e-05  2.57847e-07     -18.3502 
          40     0.048069   1.4703e-05  3.72587e-07     -18.3502 
          40     0.058163 -9.70954e-07  5.14684e-07     -18.3502 
          40     0.069219 -1.47799e-05   6.8425e-07     -18.3502 
          40     0.081236 -2.25822e-05  8.80168e-07     -18.3502 
          40     0.094215 -3.74619e-05  1.09998e-06     -18.3502 
          40     0.108155 -4.95653e-05  1.33983e-06     -18.3502 
          40     0.123056   -6.185e-05  1.59471e-06     -18.3502 
          40     0.138918 -7.36142e-05  1.85881e-06     -18.3502 
          40     0.155744  -8.4579e-05  2.12587e-06     -18.3502 
          40     0.173529   -9.474e-05  2.38922e-06     -18.3502 
          40     0.192276 -0.000104131  2.64224e-06     -18.3502 
          40     0.211984 -0.000112601  2.87847e-06     -18.3502 
          40     0.232655 -0.000119908  3.09231e-06     -18.3502 
          40     0.254285 -0.000126391  3.28001e-06     -18.3502 
          40     0.276877 -0.000131847  3.43579e-06     -18.3502 
          40     0.300431  -0.00013646  3.55735e-06     -18.3502 
          40     0.324946 -0.000140303  3.64497e-06     -18.3502 
          40     0.350424 -0.000143466  3.69871e-06     -18.3502 
          40     0.376861 -0.000146044  3.71898e-06     -18.3502 
          40      0.40426  -0.00014813  3.70715e-06     -18.3502 
          40     0.432621 -0.000149803  3.66624e-06     -18.3502 
          40     0.461945 -0.000151126  3.60144e-06     -18.3502 
          40     0.492228 -0.000152128  3.52016e-06     -18.3502 
          40     0.523472 -0.000152809  3.43129e-06     -18.3502 
          40     0.555678 -0.000153136  3.34314e-06     -18.3502 
          40     0.588845 -0.000153049  3.25924e-06     -18.3502 
          40     0.622976 -0.000152463  3.17989e-06     -18.3502 
          40     0.658066 -0.000151306  3.14251e-06     -18.3502 
          40     0.694117 -0.000149465  3.15174e-06     -18.3502 
          40      0.73113 -0.000146804  3.20735e-06     -18.3502 
          40     0.769107 -0.000143228  3.31096e-06     -18.3502 
          40     0.808042 -0.000138688  3.46544e-06     -18.3502 
          40     0.847939 -0.000133176  3.67428e-06     -18.3502 
          40     0.888797 -0.000126729  3.94067e-06     -18.3502 
          40      0.93062 -0.000119419  4.26665e-06     -18.3502 
          40       0.9734 -0.000111355  4.65199e-06     -18.3502 
          40      1.01714 -0.000102668  5.09359e-06     -18.3502 
          40      1.06185 -9.35051e-05  5.58457e-06     -18.3502 
          40      1.10751 -8.40194e-05  6.11417e-06     -18.3502 
          40      1.15414 -7.43567e-05  6.66805e-06     -18.3502 
          40      1.20173 -6.46476e-05  7.22928e-06     -18.3502 
          40      1.25028 -5.49932e-05   7.7809e-06     -18.3502 
          40      1.29979  -4.5459e-05  8.30956e-06     -18.3502 
          40      1.35026 -3.60702e-05  8.81138e-06     -18.3502 
          40       1.4017 -2.68159e-05  9.29994e-06     -18.3502 
          40      1.45409 -1.76545e-05  9.81773e-06     -18.3502 
          40      1.50745 -8.53575e-06   1.0443e-05     -18.3502 
          40      1.56176  1.01074e-06  1.07891e-05     -18.3501 
          40      1.61705  1.11199e-05  1.11768e-05     -18.3501 
          40      1.67329  2.14879e-05   1.1588e-05     -18.3501 
          40      1.73049  3.18545e-05  1.20069e-05     -18.3501 
          40      1.78865  4.20013e-05  1.24198e-05     -18.3501 
          40      1.84778  5.17539e-05   1.2816e-05     -18.3501 
          40      1.90786  6.09788e-05   1.3187e-05     -18.3501 
          40      1.96891  6.95869e-05  1.35272e-05     -18.3501 
          40      2.03092  7.75277e-05  1.38334e-05     -18.3501 
          40      2.09389  8.47876e-05  1.41051e-05     -18.3501 
          40      2.15782   9.1383e-05  1.43441e-05     -18.3501 
          40      2.22272  9.73592e-05  1.45544e-05     -18.3501 
          40      2.28857  0.000102781  1.47419e-05     -18.3501 
          40      2.35539  0.000107728  1.49141e-05     -18.3501 
          40      2.42317  0.000112287  1.50797e-05       -18.35 
          40      2.49191  0.000116541  1.52483e-05       -18.35 
          40      2.56161  0.000120568  1.54297e-05       -18.35 
          40      2.63226  0.000124429  1.56335e-05       -18.35 
          40      2.70389  0.000128163  1.58687e-05       -18.35 
          40      2.77648  0.000131782   1.6143e-05       -18.35 
          40      2.85002  0.000135265  1.64621e-05       -18.35 
          40      2.92453  0.000138558  1.68296e-05       -18.35 
          40            3  0.000141576   1.7246e-05       -18.35 
          60            0           -0           -0     -17.9402 
          60      0.00048    8.398e-06  1.89008e-11     -17.9402 
          60     0.001922  2.96503e-05  5.61844e-10     -17.9402 
          60     0.004326  5.39171e-05  3.05956e-09     -17.9402 
          60      0.00769  7.07344e-05  9.80198e-09     -17.9402 
          60     0.012017  7.46715e-05  2.38396e-08     -17.9402 
          60     0.017304  6.80543e-05  4.88369e-08     -17.9402 
          60     0.023553  5.88776e-05  8.89898e-08     -17.9402 
          60     0.030763  5.44926e-05  1.48883e-07     -17.9402 
          60     0.038936  5.51653e-05  2.33398e-07     -17.9402 
          60     0.048069  5.36785e-05  3.47442e-07     -17.9402 
          60     0.058163  4.48643e-05  4.95772e-07     -17.9402 
          60     0.069219  3.76787e-05  6.82695e-07     -17.9402 
          60     0.081236   3.5944e-05  9.12007e-07     -17.9402 
          60     0.094215  2.69278e-05  1.18674e-06     -17.9402 
          60     0.108155  1.99854e-05  1.50889e-06     -17.9402 
          60     0.123056  1.21774e-05  1.87946e-06     -17.9402 
          60     0.138918  4.11925e-06  2.29832e-06     -17.9402 
          60     0.155744  -3.9429e-06  2.76427e-06     -17.9402 
          60     0.173529   -1.199e-05  3.27482e-06     -17.9402 
          60     0.192276 -2.00025e-05  3.82661e-06     -17.9402 
          60     0.211984 -2.77525e-05  4.41529e-06     -17.9402 
          60     0.232655 -3.48991e-05  5.03593e-06     -17.9402 
          60     0.254285 -4.16431e-05  5.68314e-06     -17.9402 
          60     0.276877 -4.76553e-05  6.35091e-06     -17.9402 
          60     0.300431 -5.29773e-05  7.03355e-06     -17.9402 
          60     0.324946 -5.75553e-05  7.72578e-06     -17.9402 
          60     0.350424 -6.13641e-05  8.42252e-06     -17.9402 
          60     0.376861 -6.44046e-05  9.11886e-06     -17.9402 
          60      0.40426 -6.67025e-05  9.81067e-06     -17.9402 
          60     0.432621 -6.83018e-05  1.04945e-05     -17.9402 
          60     0.461945 -6.92577e-05  1.11677e-05     -17.9402 
          60     0.492228 -6.96302e-05  1.18285e-05     -17.9402 
          60     0.523472 -6.94772e-05   1.2476e-05     -17.9402 
          60     0.555678 -6.88528e-05  1.31093e-05     -17.9402 
          60     0.588845 -6.78114e-05  1.37272e-05     -17.9402 
          60     0.622976 -6.64007e-05  1.43276e-05     -17.9402 
          60     0.658066 -6.46682e-05  1.49171e-05     -17.9402 
          60     0.694117 -6.26485e-05  1.54962e-05     -17.9402 
          60      0.73113 -6.03374e-05  1.60637e-05     -17.9402 
          60     0.769107 -5.77301e-05  1.66195e-05     -17.9402 
          60     0.808042 -5.48218e-05  1.71649e-05     -17.9402 
          60     0.847939 -5.16085e-05  1.77016e-05     -17.9402 
          60     0.888797 -4.80891e-05  1.82319e-05     -17.9402 
          60      0.93062 -4.42664e-05  1.87583e-05     -17.9402 
          60       0.9734 -4.01504e-05  1.92824e-05     -17.9402 
          60      1.01714 -3.57573e-05   1.9805e-05     -17.9402 
          60      1.06185  -3.1113e-05  2.03257e-05     -17.9402 
          60      1.10751 -2.62529e-05  2.08423e-05     -17.9402 
          60      1.15414 -2.12216e-05  2.13508e-05     -17.9402 
          60      1.20173 -1.60737e-05  2.18456e-05     -17.9402 
          60      1.25028 -1.08685e-05  2.23204e-05     -17.9402 
          60      1.29979 -5.66662e-06  2.27689e-05     -17.9402 