Variables = x, y, u, v, p

Zone, I=416, F=POINT
         -50            0            0            0     -10.7358 
         -50     0.013333  0.000226715  3.66879e-08     -10.7358 
         -50     0.053333  0.000203997  1.74525e-07     -10.7358 
         -50         0.12  0.000190921  3.56659e-07     -10.7358 
         -50     0.213332  0.000186642  5.05219e-07     -10.7358 
         -50     0.333332  0.000186226   4.8898e-07     -10.7358 
         -50         0.48  0.000186123 -2.97861e-08     -10.7358 
         -50     0.653331  0.000185206 -6.87531e-07     -10.7358 
         -50     0.853332  0.000185448 -1.25992e-06     -10.7357 
         -50         1.08  0.000189509 -1.73432e-06     -10.7356 
         -50      1.33333  0.000195275 -2.26995e-06     -10.7355 
         -50      1.61333  0.000200484 -2.07364e-06     -10.7354 
         -50         1.92  0.000202951 -2.21207e-06     -10.7352 
         -50      2.25333  0.000206054  -1.1204e-06      -10.735 
         -50      2.61333  0.000210056   1.4512e-06     -10.7347 
         -50            3  0.000211933  4.38583e-06     -10.7344 
         -25            0  1.92075e-19  2.24544e-24     -10.3258 
         -25     0.013333  0.000164767  8.46354e-09     -10.3258 
         -25     0.053333  0.000146171  -1.6418e-08     -10.3258 
         -25         0.12  0.000137755 -2.61896e-07     -10.3258 
         -25     0.213332  0.000138986 -9.26762e-07     -10.3258 
         -25     0.333332  0.000142801 -2.06894e-06     -10.3258 
         -25         0.48   0.00014446 -3.57657e-06     -10.3258 
         -25     0.653331  0.000144159 -5.29592e-06     -10.3258 
         -25     0.853332  0.000145165 -6.92974e-06     -10.3257 
         -25         1.08  0.000149532 -8.24446e-06     -10.3257 
         -25      1.33333  0.000154901 -9.11837e-06     -10.3257 
         -25      1.61333  0.000159245 -9.47821e-06     -10.3256 
         -25         1.92  0.000162837 -9.39134e-06     -10.3256 
         -25      2.25333  0.000165631 -9.22484e-06     -10.3255 
         -25      2.61333  0.000161913 -1.13284e-05     -10.3254 
         -25            3  0.000152976 -1.45637e-05     -10.3252 
           0            0            0            0     -9.98819 
           0     0.013333   0.00050609 -0.000278134     -9.98812 
           0     0.053333  0.000284574 -0.000146329     -9.98874 
           0         0.12   0.00021753 -8.93984e-05      -9.9894 
           0     0.213332  0.000189561 -6.80052e-05     -9.99006 
           0     0.333332  0.000173815 -5.46407e-05     -9.99074 
           0         0.48  0.000162109 -4.42931e-05      -9.9914 
           0     0.653331  0.000155581 -3.62553e-05     -9.99205 
           0     0.853332     0.000152 -2.98496e-05     -9.99269 
           0         1.08  0.000149558 -2.47535e-05      -9.9933 
           0      1.33333  0.000149155  -2.0707e-05     -9.99388 
           0      1.61333  0.000150361 -1.75414e-05     -9.99443 
           0         1.92  0.000151576 -1.50551e-05     -9.99495 
           0      2.25333  0.000156516 -1.29308e-05     -9.99544 
           0      2.61333  0.000157807 -1.28447e-05     -9.99589 
           0            3  0.000148272 -1.49973e-05     -9.99631 
          20            0  0.000158034  5.13872e-05     -9.77895 
          20     0.013333  0.000168598  5.04344e-05     -9.77895 
          20     0.053333  0.000198893  4.72437e-05     -9.77895 
          20         0.12  0.000243299  4.08227e-05     -9.77895 
          20     0.213332  0.000289473  2.96484e-05     -9.77894 
          20     0.333332  0.000321157  1.23746e-05     -9.77894 
          20         0.48  0.000332398 -1.09199e-05     -9.77893 
          20     0.653331  0.000335394 -3.78169e-05     -9.77892 
          20     0.853332  0.000338794 -6.52151e-05     -9.77891 
          20         1.08  0.000340143  -9.0633e-05     -9.77889 
          20      1.33333  0.000334944 -0.000111952     -9.77887 
          20      1.61333  0.000322391 -0.000127237     -9.77883 
          20         1.92  0.000303326 -0.000135309     -9.77879 
          20      2.25333  0.000279916 -0.000136415     -9.77875 
          20      2.61333  0.000255784 -0.000130867      -9.7787 
          20            3  0.000232792 -0.000120825     -9.77864 
          40            0   0.00265573  -0.00173216     -9.57293 
          40     0.013333   0.00272896  -0.00174815     -9.57293 
          40     0.053333   0.00292962  -0.00179635     -9.57293 
          40         0.12   0.00319517  -0.00187751     -9.57292 
          40     0.213332   0.00341559  -0.00199254     -9.57291 
          40     0.333332   0.00346365  -0.00214008      -9.5729 
          40         0.48   0.00327694  -0.00231158     -9.57288 
          40     0.653331   0.00290761  -0.00248732     -9.57285 
          40     0.853332   0.00244597  -0.00263949     -9.57281 
          40         1.08   0.00193963  -0.00274062     -9.57276 
          40      1.33333   0.00141579  -0.00276951      -9.5727 
          40      1.61333  0.000917094  -0.00271418     -9.57263 
          40         1.92  0.000498698  -0.00257739     -9.57256 
          40      2.25333  0.000198585  -0.00237756     -9.57249 
          40      2.61333  1.68155e-05  -0.00214178     -9.57241 
          40            3 -7.00702e-05  -0.00189414     -9.57234 
          60            0   0.00659424  -0.00371057     -9.38013 
          60     0.013333    0.0068495  -0.00376851     -9.38013 
          60     0.053333   0.00753952  -0.00394721     -9.38012 
          60         0.12   0.00843386  -0.00426021     -9.38011 
          60     0.213332   0.00918293   -0.0047238     -9.38009 
          60     0.333332   0.00947515  -0.00534163     -9.38005 
          60         0.48   0.00925312  -0.00608428     -9.37998 
          60     0.653331   0.00870502  -0.00688259     -9.37987 
          60     0.853332   0.00799112  -0.00764389     -9.37971 
          60         1.08   0.00712307  -0.00827254     -9.37949 
          60      1.33333   0.00608781  -0.00868434      -9.3792 
          60      1.61333   0.00493754   -0.0088217     -9.37886 
          60         1.92   0.00378692  -0.00867035     -9.37848 
          60      2.25333   0.00276552  -0.00826755     -9.37808 
          60      2.61333   0.00195516    -0.007688     -9.37767 
          60            3   0.00135743  -0.00701476     -9.37727 
          80            0            0            0     -9.18892 
          80     0.013333   -0.0036668 -4.87264e-08     -9.18892 
          80     0.053333    -0.012566 -1.18363e-05     -9.18892 
          80         0.12   -0.0205993 -0.000120506     -9.18892 
          80     0.213332   -0.0232006 -0.000513626     -9.18893 
          80     0.333332   -0.0218718  -0.00138909     -9.18894 
          80         0.48   -0.0219432  -0.00282765     -9.18895 
          80     0.653331   -0.0239679  -0.00461097     -9.18894 
          80     0.853332   -0.0228515  -0.00636252     -9.18889 
          80         1.08   -0.0197807  -0.00812382     -9.18878 
          80      1.33333   -0.0153398  -0.00978768     -9.18859 
          80      1.61333  -0.00918388   -0.0110249     -9.18829 
          80         1.92  -0.00295973   -0.0116859     -9.18787 
          80      2.25333   0.00216617   -0.0117237     -9.18734 
          80      2.61333   0.00552478   -0.0112426     -9.18673 
          80            3   0.00703861      -0.0104      -9.1861 
         100            0            0            0     -8.99305 
         100     0.013333  -0.00235937  2.06377e-07     -8.99305 
         100     0.053333  -0.00857721 -2.79258e-06     -8.99305 
         100         0.12   -0.0152438  -4.7487e-05     -8.99306 
         100     0.213332   -0.0190229  -0.00022179     -8.99306 
         100     0.333332    -0.019344 -0.000608213     -8.99307 
         100         0.48   -0.0187301  -0.00124063     -8.99308 
         100     0.653331   -0.0203225  -0.00209489     -8.99309 
         100     0.853332   -0.0236312  -0.00297379     -8.99309 
         100         1.08   -0.0236176  -0.00352195     -8.99307 
         100      1.33333   -0.0191502  -0.00363221     -8.99299 
         100      1.61333   -0.0129862   -0.0035325     -8.99283 
         100         1.92  -0.00643308  -0.00333211     -8.99257 
         100      2.25333 -0.000513881  -0.00303214     -8.99221 
         100      2.61333   0.00390993  -0.00268547     -8.99176 
         100            3   0.00640018  -0.00231093     -8.99127 
         150            0            0            0     -8.51174 
         150     0.013333  8.09706e-05 -3.45055e-06     -8.51174 
         150     0.053333  0.000694152 -4.91146e-05     -8.51174 
         150         0.12   0.00276791  -0.00020322     -8.51174 
         150     0.213332   0.00549589  -0.00048561     -8.51174 
         150     0.333332   0.00733473 -0.000852453     -8.51174 
         150         0.48   0.00777158  -0.00126152     -8.51173 
         150     0.653331   0.00710588  -0.00171856     -8.51172 
         150     0.853332    0.0055962  -0.00224394     -8.51172 
         150         1.08   0.00365124  -0.00280236     -8.51173 
         150      1.33333   0.00157274  -0.00331973     -8.51177 
         150      1.61333 -0.000198659  -0.00372265     -8.51186 
         150         1.92  -0.00117659  -0.00396075     -8.51199 
         150      2.25333  -0.00169867  -0.00402291     -8.51216 
         150      2.61333   -0.0019601    -0.003912     -8.51236 
         150            3  -0.00197973  -0.00366117     -8.51258 
         200            0           -0           -0     -8.05538 
         200     0.013333  -0.00136086  3.02033e-06     -8.05538 
         200     0.053333   -0.0057542  4.07165e-05     -8.05538 
         200         0.12   -0.0120666  0.000153818     -8.05538 
         200     0.213332   -0.0178079  0.000321153     -8.05538 
         200     0.333332   -0.0209423  0.000464662     -8.05539 
         200         0.48   -0.0216085  0.000529516      -8.0554 
         200     0.653331   -0.0209557  0.000532826     -8.05542 
         200     0.853332   -0.0192308  0.000545692     -8.05542 
         200         1.08   -0.0161331  0.000615785      -8.0554 
         200      1.33333   -0.0122853   0.00072127     -8.05534 
         200      1.61333  -0.00838809  0.000807084      -8.0552 
         200         1.92  -0.00466674  0.000850419     -8.05499 
         200      2.25333  -0.00111369  0.000859789     -8.05469 
         200      2.61333   0.00201171  0.000831796     -8.05432 
         200            3   0.00423913   0.00077779     -8.05389 
         250            0            0            0     -7.58583 
         250     0.013333  0.000460989 -3.78076e-07     -7.58583 
         250     0.053333   0.00141471 -4.79773e-06     -7.58583 
         250         0.12   0.00259849  -1.5447e-05     -7.58583 
         250     0.213332   0.00338028  -2.0797e-05     -7.58583 
         250     0.333332   0.00338734  6.15817e-07     -7.58583 
         250         0.48   0.00284256  5.94912e-05     -7.58583 
         250     0.653331   0.00216707  0.000145328     -7.58583 
         250     0.853332   0.00151247  0.000238404     -7.58583 
         250         1.08  0.000934659  0.000332333     -7.58583 
         250      1.33333  0.000593198  0.000435713     -7.58584 
         250      1.61333  0.000384529  0.000546702     -7.58586 
         250         1.92  0.000164594  0.000650099     -7.58589 
         250      2.25333 -6.61267e-05  0.000733546     -7.58593 
         250      2.61333 -0.000273287  0.000789991     -7.58598 
         250            3 -0.000409337  0.000816173     -7.58604 
         300            0            0            0     -7.11905 
         300     0.013333   0.00111415 -2.51061e-06     -7.11905 
         300     0.053333   0.00432499  -3.5447e-05     -7.11905 
         300         0.12   0.00951473 -0.000144819     -7.11905 
         300     0.213332    0.0150295 -0.000337841     -7.11905 
         300     0.333332    0.0188114 -0.000564001     -7.11905 
         300         0.48    0.0201928 -0.000762623     -7.11904 
         300     0.653331    0.0198694 -0.000915912     -7.11903 
         300     0.853332    0.0184992  -0.00105081     -7.11903 
         300         1.08    0.0162164  -0.00119636     -7.11904 
         300      1.33333    0.0132904  -0.00135148     -7.11907 
         300      1.61333    0.0101582  -0.00148733     -7.11915 
         300         1.92   0.00686173  -0.00158191     -7.11928 
         300      2.25333   0.00349119  -0.00162906     -7.11947 
         300      2.61333  0.000340147  -0.00161976     -7.11973 
         300            3  -0.00221407  -0.00155673     -7.12005 
         350            0  2.75209e-20 -4.23175e-26     -6.65793 
         350     0.013333 -5.37051e-05 -3.98721e-06     -6.65793 
         350     0.053333   0.00061046 -5.92743e-05     -6.65793 
         350         0.12   0.00393728 -0.000262366     -6.65793 
         350     0.213332    0.0095723 -0.000678979     -6.65793 
         350     0.333332    0.0148863   -0.0012823     -6.65793 
         350         0.48    0.0177059  -0.00198819     -6.65793 
         350     0.653331    0.0177974  -0.00274071     -6.65792 
         350     0.853332    0.0158402  -0.00353599     -6.65792 
         350         1.08    0.0127396   -0.0043602     -6.65792 
         350      1.33333   0.00978913  -0.00514198     -6.65795 
         350      1.61333   0.00748197  -0.00580151       -6.658 
         350         1.92   0.00514919  -0.00630052      -6.6581 
         350      2.25333   0.00268527  -0.00660271     -6.65826 
         350      2.61333  0.000323223  -0.00667703     -6.65847 
         350            3  -0.00164009  -0.00651859     -6.65872 
         400            0           -0           -0     -6.20613 
         400     0.013333  -0.00312694 -1.16393e-06     -6.20613 
         400     0.053333   -0.0110248  -2.2445e-05     -6.20613 
         400         0.12   -0.0190758 -0.000133117     -6.20613 
         400     0.213332   -0.0231029 -0.000450541     -6.20613 
         400     0.333332   -0.0223921  -0.00106954     -6.20614 
         400         0.48   -0.0195092  -0.00199636     -6.20615 
         400     0.653331   -0.0172908  -0.00316506     -6.20616 
         400     0.853332   -0.0166321  -0.00448234     -6.20617 
         400         1.08   -0.0162874  -0.00583052     -6.20616 
         400      1.33333   -0.0145374  -0.00708255     -6.20613 
         400      1.61333   -0.0114662    -0.008166     -6.20607 
         400         1.92  -0.00815299  -0.00905131     -6.20595 
         400      2.25333  -0.00476155  -0.00967612     -6.20577 
         400      2.61333  -0.00143313  -0.00998534     -6.20552 
         400            3   0.00148954  -0.00995263     -6.20521 
         450            0            0            0     -5.74092 
         450     0.013333  0.000271016  2.30376e-06     -5.74092 
         450     0.053333  6.22323e-05  3.39679e-05     -5.74092 
         450         0.12   -0.0016209  0.000149313     -5.74092 
         450     0.213332  -0.00473372  0.000386431     -5.74092 
         450     0.333332  -0.00795884  0.000736753     -5.74092 
         450         0.48   -0.0100825   0.00116177     -5.74093 
         450     0.653331   -0.0108287   0.00163362     -5.74093 
         450     0.853332   -0.0103659   0.00215317     -5.74094 
         450         1.08  -0.00881031   0.00273061     -5.74094 
         450      1.33333   -0.0066737   0.00334306     -5.74093 
         450      1.61333  -0.00483471     0.003925      -5.7409 
         450         1.92  -0.00333296   0.00441995     -5.74085 
         450      2.25333  -0.00184178   0.00479649     -5.74076 
         450      2.61333  -0.00035452   0.00502533     -5.74063 
         450            3  0.000939289   0.00508691     -5.74047 
         500            0  4.07295e-19  9.54939e-27     -5.27235 
         500     0.013333  0.000924106  -1.1534e-06     -5.27235 
         500     0.053333   0.00332225 -1.58512e-05     -5.27235 
         500         0.12    0.0068412  -6.1852e-05     -5.27235 
         500     0.213332    0.0102828 -0.000134588     -5.27234 
         500     0.333332    0.0124464 -0.000202386     -5.27234 
         500         0.48    0.0130894  -0.00023371     -5.27234 
         500     0.653331    0.0128036 -0.000223552     -5.27233 
         500     0.853332    0.0120866 -0.000194228     -5.27233 
         500         1.08    0.0108976 -0.000177467     -5.27233 
         500      1.33333   0.00919208 -0.000187061     -5.27234 
         500      1.61333    0.0073251 -0.000209285     -5.27237 
         500         1.92   0.00548799 -0.000227837     -5.27243 
         500      2.25333   0.00358214 -0.000240515     -5.27252 
         500      2.61333   0.00164244 -0.000247048     -5.27266 
         500            3 -0.000149649 -0.000246725     -5.27283 
         550            0           -0           -0     -4.81649 
         550     0.013333 -1.08753e-05  8.08056e-07     -4.81649 
         550     0.053333 -0.000628326  1.22868e-05     -4.81649 
         550         0.12  -0.00216353  5.67098e-05     -4.81649 
         550     0.213332  -0.00460791  0.000155633     -4.81649 
         550     0.333332  -0.00727896    0.0003133     -4.81649 
         550         0.48   -0.0093155  0.000511176     -4.81649 
         550     0.653331   -0.0103566  0.000720209     -4.81649 
         550     0.853332   -0.0106261  0.000918373     -4.81649 
         550         1.08   -0.0104198   0.00110106     -4.81649 
         550      1.33333  -0.00968987   0.00127994     -4.81649 
         550      1.61333  -0.00837643   0.00146349     -4.81648 
         550         1.92  -0.00679617   0.00163726     -4.81646 
         550      2.25333  -0.00506092   0.00178168     -4.81643 
         550      2.61333  -0.00322064   0.00188352     -4.81637 
         550            3  -0.00139789   0.00193404      -4.8163 
         600            0           -0           -0     -4.35039 
         600     0.013333  -0.00125877 -2.81218e-06     -4.35039 
         600     0.053333  -0.00393252 -4.37881e-05     -4.35039 
         600         0.12  -0.00489317 -0.000207885      -4.3504 
         600     0.213332  -0.00241837 -0.000585882      -4.3504 
         600     0.333332   0.00233607   -0.0012111      -4.3504 
         600         0.48   0.00673256  -0.00204282      -4.3504 
         600     0.653331   0.00900321   -0.0030159      -4.3504 
         600     0.853332   0.00888731    -0.004087      -4.3504 
         600         1.08   0.00715326  -0.00521927      -4.3504 
         600      1.33333   0.00525027  -0.00634392      -4.3504 
         600      1.61333   0.00414639  -0.00738204     -4.35041 
         600         1.92   0.00339581  -0.00828869     -4.35043 
         600      2.25333   0.00256382  -0.00902204     -4.35045 
         600      2.61333   0.00161575  -0.00953001      -4.3505 
         600            3  0.000689005  -0.00976616     -4.35055 
         650            0           -0           -0     -3.89208 
         650     0.013333  0.000361703  2.21145e-06     -3.89208 
         650     0.053333   0.00039089  3.27976e-05     -3.89208 
         650         0.12  -0.00101849  0.000145233     -3.89208 
         650     0.213332  -0.00394484  0.000378211     -3.89208 
         650     0.333332  -0.00707074  0.000723327     -3.89208 
         650         0.48  -0.00908617   0.00114065     -3.89208 
         650     0.653331  -0.00968013   0.00160302     -3.89209 
         650     0.853332  -0.00904369   0.00211726     -3.89209 
         650         1.08  -0.00726434   0.00270216     -3.89209 
         650      1.33333  -0.00489521    0.0033367     -3.89209 
         650      1.61333  -0.00309772   0.00394786     -3.89207 
         650         1.92  -0.00207658   0.00447619     -3.89203 
         650      2.25333  -0.00118363   0.00490159     -3.89196 
         650      2.61333 -0.000217907   0.00520245     -3.89187 
         650            3  0.000671342   0.00535434     -3.89174 
         700            0           -0           -0     -3.42443 
         700     0.013333  0.000576933 -7.81404e-07     -3.42443 
         700     0.053333   0.00199282 -1.08205e-05     -3.42443 
         700         0.12   0.00416208 -4.28801e-05     -3.42443 
         700     0.213332   0.00638398 -9.60005e-05     -3.42443 
         700     0.333332   0.00787776 -0.000151854     -3.42443 
         700         0.48   0.00843634 -0.000191392     -3.42443 
         700     0.653331    0.0084251 -0.000211223     -3.42442 
         700     0.853332   0.00819368 -0.000225131     -3.42442 
         700         1.08   0.00765216 -0.000257628     -3.42442 
         700      1.33333   0.00654659 -0.000327418     -3.42442 
         700      1.61333   0.00512582 -0.000425385     -3.42443 
         700         1.92   0.00391828 -0.000521578     -3.42446 
         700      2.25333   0.00280553 -0.000603246     -3.42451 
         700      2.61333   0.00166159 -0.000667678     -3.42459 
         700            3  0.000530017 -0.000712997     -3.42469 
         750            0            0            0     -2.96494 
         750     0.013333 -7.04451e-05  1.90192e-07     -2.96494 
         750     0.053333 -0.000593173  2.54027e-06     -2.96494 
         750         0.12  -0.00132177  9.45564e-06     -2.96494 
         750     0.213332  -0.00200989  1.92247e-05     -2.96494 
         750     0.333332  -0.00244409  2.62097e-05     -2.96494 
         750         0.48  -0.00260408   2.5821e-05     -2.96494 
         750     0.653331  -0.00262137  1.78855e-05     -2.96494 
         750     0.853332  -0.00261011  6.11913e-06     -2.96494 
         750         1.08  -0.00254742 -2.66627e-06     -2.96495 
         750      1.33333  -0.00230214 -3.33302e-08     -2.96495 
         750      1.61333  -0.00185223  1.73194e-05     -2.96494 
         750         1.92   -0.0013955  4.17386e-05     -2.96493 
         750      2.25333 -0.000978133  6.64828e-05     -2.96492 
         750      2.61333 -0.000568615  8.94667e-05      -2.9649 
         750            3 -0.000156229  0.000110409     -2.96487 
         800            0            0            0     -2.50104 
         800     0.013333  0.000135041  -2.2761e-08     -2.50104 
         800     0.053333  0.000200224 -2.93566e-07     -2.50104 
         800         0.12   0.00029547 -1.02282e-06     -2.50104 
         800     0.213332  0.000382714 -1.85012e-06     -2.50104 
         800     0.333332  0.000432964 -2.00166e-06     -2.50104 
         800         0.48   0.00044781 -9.85702e-07     -2.50104 
         800     0.653331  0.000447991   1.1036e-06     -2.50104 
         800     0.853332  0.000449698  3.79172e-06     -2.50104 
         800         1.08  0.000451025  6.27316e-06     -2.50104 
         800      1.33333  0.000430379  7.22754e-06     -2.50104 
         800      1.61333  0.000372532  5.53555e-06     -2.50104 
         800         1.92  0.000303432  1.92621e-06     -2.50104 
         800      2.25333  0.000241941 -2.26594e-06     -2.50104 
         800      2.61333  0.000186083 -6.36521e-06     -2.50105 
         800            3  0.000129933 -1.03031e-05     -2.50105 
         850            0  1.23949e-19  3.15887e-28     -2.03797 
         850     0.013333  0.000105057  9.42276e-10     -2.03797 
         850     0.053333  8.70272e-05  8.47815e-09     -2.03797 
         850         0.12  7.15123e-05  2.61118e-09     -2.03797 
         850     0.213332  6.17048e-05 -9.79432e-08     -2.03797 
         850     0.333332  5.76918e-05 -3.91245e-07     -2.03797 
         850         0.48  5.75413e-05 -9.15349e-07     -2.03797 
         850     0.653331  5.85563e-05 -1.63986e-06     -2.03797 
         850     0.853332  5.86731e-05 -2.50844e-06     -2.03797 
         850         1.08  5.77489e-05 -3.45022e-06     -2.03797 
         850      1.33333  5.81419e-05  -4.2989e-06     -2.03797 
         850      1.61333  6.29429e-05  -4.8971e-06     -2.03797 
         850         1.92  7.10245e-05 -5.14601e-06     -2.03797 
         850      2.25333  7.87815e-05 -5.23588e-06     -2.03797 
         850      2.61333  8.57232e-05 -5.20064e-06     -2.03797 
         850            3  9.27799e-05 -5.03617e-06     -2.03797 
         900            0           -0           -0     -1.57463 
         900     0.013333   0.00010936 -1.86664e-10     -1.57463 
         900     0.053333  0.000102718 -2.15736e-09     -1.57463 
         900         0.12  0.000101164 -5.81014e-09     -1.57463 
         900     0.213332  0.000102282 -4.20587e-09     -1.57463 
         900     0.333332  0.000103233    1.298e-08     -1.57463 
         900         0.48  0.000103437  5.13293e-08     -1.57463 
         900     0.653331  0.000103462  1.09983e-07     -1.57463 
         900     0.853332  0.000103563  1.81409e-07     -1.57463 
         900         1.08  0.000103774  2.62407e-07     -1.57463 
         900      1.33333  0.000103861  3.42945e-07     -1.57463 
         900      1.61333  0.000103571   3.7037e-07     -1.57463 
         900         1.92  0.000102812  3.90499e-07     -1.57463 
         900      2.25333  0.000102034  3.73227e-07     -1.57463 
         900      2.61333  0.000101265  3.42758e-07     -1.57463 
         900            3  0.000100394  3.42562e-07     -1.57463 
         950            0            0            0     -1.11144 
         950     0.013333   0.00010891   5.2803e-11     -1.11144 
         950     0.053333  0.000101035  7.18308e-10     -1.11144 
         950         0.12  9.78901e-05  2.69968e-09     -1.11144 
         950     0.213332  9.76384e-05  5.87733e-09     -1.11144 
         950     0.333332  9.78096e-05  9.72002e-09     -1.11144 
         950         0.48  9.77636e-05  1.38115e-08     -1.11144 
         950     0.653331  9.77676e-05  1.69203e-08     -1.11144 
         950     0.853332  9.78163e-05  2.48277e-08     -1.11144 
         950         1.08   9.7915e-05  2.87895e-08     -1.11144 
         950      1.33333  9.80767e-05  2.54888e-08     -1.11144 
         950      1.61333   9.8323e-05   6.3688e-08     -1.11144 
         950         1.92   9.8773e-05  2.78248e-08     -1.11144 
         950      2.25333  9.91319e-05  8.55445e-08     -1.11144 
         950      2.61333  9.93988e-05  1.31004e-07     -1.11144 
         950            3  9.96261e-05  8.45716e-08     -1.11144 
        1000            0  1.25329e-19  3.92879e-28    -0.648385 
        1000     0.013333  0.000108925  9.31806e-12    -0.648385 
        1000     0.053333  0.000101108  7.15705e-11    -0.648385 
        1000         0.12  9.80511e-05  1.00577e-10    -0.648385 
        1000     0.213332  9.78871e-05  3.61952e-11    -0.648385 
        1000     0.333332  9.81179e-05   2.8856e-11    -0.648385 
        1000         0.48  9.80972e-05  8.75188e-11    -0.648385 
        1000     0.653331  9.81001e-05 -4.48809e-11    -0.648385 
        1000     0.853332  9.81366e-05  1.51185e-09    -0.648385 
        1000         1.08  9.81989e-05  2.18754e-09    -0.648385 
        1000      1.33333  9.82916e-05  1.00568e-08    -0.648385 
        1000      1.61333  9.84507e-05 -8.07296e-09    -0.648385 
        1000         1.92  9.87583e-05  3.35636e-08    -0.648385 
        1000      2.25333  9.91261e-05  5.07753e-09    -0.648385 
        1000      2.61333  9.96359e-05 -1.90957e-08    -0.648385 
        1000            3  0.000100208   2.7315e-08    -0.648385 
