Variables = x, y, u, v, p

Zone, I=20800, F=POINT
         -50            0            0            0     2.11e-05 
         -50     0.000234 -7.47938e-08  4.20373e-11     2.11e-05 
         -50     0.000939 -2.98839e-07   1.4172e-10  2.10999e-05 
         -50     0.002113 -6.67643e-07  2.18124e-10  2.10998e-05 
         -50     0.003759 -1.17579e-06  1.37614e-10  2.10997e-05 
         -50     0.005872 -1.81304e-06 -2.84894e-10  2.10995e-05 
         -50     0.008457 -2.57001e-06 -1.28649e-09  2.10993e-05 
         -50      0.01151 -3.43268e-06 -3.15165e-09  2.10991e-05 
         -50     0.015036 -4.38786e-06 -6.21887e-09  2.10988e-05 
         -50     0.019031 -5.41842e-06 -1.08688e-08  2.10985e-05 
         -50     0.023493 -6.50684e-06 -1.75278e-08  2.10981e-05 
         -50     0.028429 -7.63694e-06 -2.66822e-08  2.10978e-05 
         -50     0.033831 -8.78864e-06  -3.8834e-08  2.10973e-05 
         -50     0.039706 -9.94525e-06 -5.45501e-08  2.10969e-05 
         -50     0.046047 -1.10876e-05 -7.43893e-08  2.10964e-05 
         -50     0.052863 -1.22003e-05  -9.8976e-08  2.10958e-05 
         -50      0.06015 -1.32668e-05 -1.28906e-07  2.10953e-05 
         -50       0.0679 -1.42719e-05 -1.64762e-07  2.10947e-05 
         -50     0.076126 -1.52045e-05 -2.07265e-07  2.10941e-05 
         -50     0.084816 -1.60526e-05  -2.5712e-07  2.10934e-05 
         -50     0.093982 -1.68093e-05 -3.14741e-07  2.10928e-05 
         -50     0.103611 -1.74673e-05 -3.80695e-07  2.10921e-05 
         -50     0.113718 -1.80237e-05 -4.55957e-07  2.10913e-05 
         -50     0.124286 -1.84764e-05  -5.4113e-07  2.10906e-05 
         -50     0.135333  -1.8827e-05 -6.36975e-07  2.10898e-05 
         -50      0.14685 -1.90781e-05 -7.43976e-07  2.10891e-05 
         -50     0.158827 -1.92347e-05 -8.62592e-07  2.10884e-05 
         -50     0.171284 -1.93036e-05 -9.93674e-07  2.10877e-05 
         -50     0.184201 -1.92931e-05 -1.13781e-06   2.1087e-05 
         -50     0.197599 -1.92124e-05 -1.29618e-06  2.10864e-05 
         -50     0.211455  -1.9072e-05 -1.46943e-06  2.10859e-05 
         -50     0.225792 -1.88826e-05 -1.65843e-06  2.10855e-05 
         -50       0.2406 -1.86554e-05 -1.86258e-06  2.10854e-05 
         -50     0.255865 -1.84025e-05  -2.0823e-06  2.10853e-05 
         -50     0.271613 -1.81358e-05 -2.31368e-06  2.10852e-05 
         -50     0.287818 -1.78669e-05 -2.55532e-06  2.10855e-05 
         -50     0.304506 -1.76061e-05 -2.80991e-06  2.10861e-05 
         -50      0.32165 -1.73645e-05 -3.07362e-06  2.10869e-05 
         -50     0.339278 -1.71521e-05 -3.33911e-06  2.10876e-05 
         -50     0.357377 -1.69783e-05 -3.59575e-06  2.10882e-05 
         -50      0.37593 -1.68517e-05  -3.8325e-06  2.10883e-05 
         -50     0.394968  -1.6779e-05 -4.04098e-06  2.10877e-05 
         -50     0.414461 -1.67654e-05 -4.21654e-06  2.10863e-05 
         -50      0.43444 -1.68143e-05 -4.36185e-06  2.10838e-05 
         -50     0.454872 -1.69267e-05 -4.48712e-06  2.10802e-05 
         -50     0.475791 -1.71018e-05  -4.6114e-06  2.10756e-05 
         -50     0.497163 -1.73365e-05 -4.75985e-06    2.107e-05 
         -50     0.519021 -1.76264e-05 -4.96017e-06  2.10639e-05 
         -50      0.54135 -1.79654e-05 -5.23351e-06  2.10579e-05 
         -50     0.564131 -1.83465e-05 -5.58112e-06  2.10531e-05 
         -50       0.5874 -1.87643e-05 -5.96562e-06  2.10509e-05 
         -50     0.611121 -1.92137e-05 -6.30241e-06  2.10522e-05 
         -50      0.63533 -1.96815e-05 -6.77865e-06  2.10478e-05 
         -50      0.65999 -2.01579e-05 -7.25447e-06  2.10488e-05 
         -50     0.685139 -2.06327e-05  -7.7229e-06  2.10541e-05 
         -50     0.710759 -2.10956e-05 -8.17725e-06  2.10625e-05 
         -50     0.736828 -2.15372e-05 -8.61226e-06  2.10731e-05 
         -50     0.763387 -2.19497e-05 -9.02518e-06  2.10849e-05 
         -50     0.790396 -2.23254e-05 -9.41332e-06  2.10971e-05 
         -50     0.817896 -2.26581e-05 -9.77656e-06  2.11088e-05 
         -50     0.845843 -2.29419e-05 -1.01148e-05  2.11196e-05 
         -50     0.874283 -2.31724e-05 -1.04302e-05  2.11288e-05 
         -50      0.90317 -2.33452e-05 -1.07247e-05  2.11363e-05 
         -50     0.932551 -2.34572e-05 -1.10018e-05  2.11417e-05 
         -50     0.962401 -2.35055e-05 -1.12648e-05  2.11452e-05 
         -50     0.992697 -2.34876e-05 -1.15171e-05  2.11468e-05 
         -50      1.02349 -2.34015e-05 -1.17627e-05  2.11468e-05 
         -50      1.05472 -2.32455e-05 -1.20041e-05  2.11456e-05 
         -50      1.08645 -2.30177e-05 -1.22442e-05  2.11437e-05 
         -50      1.11863 -2.27167e-05 -1.24839e-05  2.11418e-05 
         -50       1.1513 -2.23407e-05  -1.2724e-05  2.11404e-05 
         -50      1.18444 -2.18885e-05 -1.29633e-05  2.11404e-05 
         -50      1.21802 -2.13595e-05 -1.31994e-05  2.11422e-05 
         -50      1.25211 -2.07525e-05 -1.34293e-05  2.11463e-05 
         -50      1.28663  -2.0069e-05 -1.36485e-05  2.11533e-05 
         -50      1.32165 -1.93101e-05 -1.38527e-05  2.11629e-05 
         -50      1.35712 -1.84816e-05 -1.40374e-05   2.1175e-05 
         -50      1.39308   -1.759e-05 -1.41999e-05  2.11887e-05 
         -50      1.42951 -1.66487e-05 -1.43402e-05  2.12025e-05 
         -50      1.46638 -1.56776e-05 -1.44626e-05  2.12142e-05 
         -50      1.50375 -1.47025e-05 -1.45789e-05  2.12206e-05 
         -50      1.54156 -1.36932e-05 -1.46892e-05  2.12348e-05 
         -50      1.57987 -1.26773e-05 -1.47822e-05  2.12503e-05 
         -50      1.61863 -1.16642e-05 -1.48582e-05  2.12663e-05 
         -50      1.65788 -1.06568e-05 -1.49175e-05  2.12828e-05 
         -50      1.69757 -9.66075e-06 -1.49605e-05  2.12998e-05 
         -50      1.73776 -8.67851e-06 -1.49875e-05  2.13174e-05 
         -50      1.77842 -7.71463e-06  -1.4999e-05  2.13355e-05 
         -50      1.81952 -6.77342e-06 -1.49953e-05   2.1354e-05 
         -50      1.86113 -5.85663e-06  -1.4977e-05  2.13732e-05 
         -50      1.90316 -4.96876e-06 -1.49445e-05  2.13928e-05 
         -50      1.94571 -4.11114e-06 -1.48984e-05   2.1413e-05 
         -50      1.98869  -3.2876e-06 -1.48391e-05  2.14338e-05 
         -50      2.03217 -2.49896e-06 -1.47671e-05  2.14551e-05 
         -50      2.07612 -1.74776e-06 -1.46831e-05  2.14769e-05 
         -50      2.12051  -1.0361e-06 -1.45877e-05  2.14992e-05 
         -50       2.1654 -3.64069e-07 -1.44813e-05   2.1522e-05 
         -50      2.21073  2.66345e-07 -1.43647e-05  2.15454e-05 
         -50      2.25656  8.55542e-07 -1.42383e-05  2.15692e-05 
         -50      2.30283   1.4023e-06  -1.4103e-05  2.15935e-05 
         -50       2.3496  1.90747e-06 -1.39592e-05  2.16182e-05 
         -50      2.39685  2.37091e-06 -1.38075e-05  2.16434e-05 
         -50      2.44452  2.79287e-06 -1.36488e-05  2.16689e-05 
         -50      2.49271  3.17486e-06 -1.34835e-05  2.16949e-05 
         -50      2.54132  3.51736e-06 -1.33124e-05  2.17212e-05 
         -50      2.59044  3.82224e-06 -1.31359e-05  2.17479e-05 
         -50         2.64  4.09054e-06  -1.2955e-05  2.17748e-05 
         -50      2.69006  4.32439e-06 -1.27699e-05   2.1802e-05 
         -50      2.74056  4.52529e-06 -1.25817e-05  2.18295e-05 
         -50      2.79156  4.69558e-06 -1.23905e-05  2.18572e-05 
         -50      2.84304   4.8372e-06 -1.21972e-05  2.18851e-05 
         -50      2.89494  4.95225e-06 -1.20025e-05  2.19131e-05 
         -50      2.94735  5.04318e-06 -1.18067e-05  2.19413e-05 
         -50       3.0002  5.11209e-06 -1.16105e-05  2.19696e-05 
         -50      3.05355  5.16133e-06 -1.14143e-05   2.1998e-05 
         -50      3.10733  5.19305e-06 -1.12188e-05  2.20264e-05 
         -50      3.16163  5.20941e-06 -1.10242e-05  2.20549e-05 
         -50      3.21639  5.21244e-06 -1.08312e-05  2.20834e-05 
         -50      3.27158  5.20407e-06 -1.06402e-05  2.21119e-05 
         -50      3.32729  5.18607e-06 -1.04513e-05  2.21405e-05 
         -50      3.38342  5.16008e-06 -1.02652e-05  2.21691e-05 
         -50      3.44007  5.12752e-06 -1.00818e-05  2.21977e-05 
         -50      3.49714  5.08969e-06 -9.90181e-06  2.22264e-05 
         -50      3.55472  5.04764e-06   -9.725e-06  2.22553e-05 
         -50      3.61273  5.00234e-06 -9.55182e-06  2.22842e-05 
         -50      3.67125  4.95448e-06 -9.38208e-06  2.23134e-05 
         -50      3.73025  4.90474e-06 -9.21593e-06  2.23429e-05 
         -50      3.78967  4.85497e-06 -9.04267e-06  2.23719e-05 
         -50      3.84961  4.80287e-06 -8.87045e-06  2.24004e-05 
         -50      3.90996  4.74926e-06 -8.70423e-06  2.24284e-05 
         -50      3.97084  4.68789e-06 -8.54097e-06  2.24582e-05 
         -50      4.03214  4.62749e-06 -8.38043e-06  2.24881e-05 
         -50      4.09395  4.56905e-06 -8.22227e-06  2.25179e-05 
         -50      4.15624  4.51239e-06 -8.06645e-06  2.25475e-05 
         -50      4.21895  4.45722e-06 -7.91292e-06  2.25769e-05 
         -50      4.28217  4.40312e-06 -7.76134e-06  2.26061e-05 
         -50      4.34582  4.34982e-06 -7.61187e-06  2.26351e-05 
         -50      4.40998  4.29691e-06 -7.46421e-06   2.2664e-05 
         -50      4.47457  4.24418e-06 -7.31858e-06  2.26926e-05 
         -50      4.53968   4.1913e-06 -7.17474e-06  2.27212e-05 
         -50      4.60525  4.13815e-06  -7.0328e-06  2.27497e-05 
         -50      4.67125  4.08471e-06 -6.89291e-06   2.2778e-05 
         -50      4.73777   4.0309e-06 -6.75487e-06  2.28063e-05 
         -50       4.8047   3.9769e-06 -6.61891e-06  2.28346e-05 
         -50      4.87216  3.92282e-06 -6.48486e-06  2.28629e-05 
         -50      4.94003  3.86899e-06 -6.35295e-06  2.28911e-05 
         -50      5.00843  3.81562e-06 -6.22298e-06  2.29194e-05 
         -50      5.07724  3.76309e-06 -6.09516e-06  2.29478e-05 
         -50      5.14658  3.71157e-06 -5.96927e-06  2.29761e-05 
         -50      5.21639  3.66128e-06 -5.84536e-06  2.30045e-05 
         -50      5.28661  3.61223e-06 -5.72349e-06  2.30329e-05 
         -50      5.35736  3.56409e-06 -5.60338e-06  2.30613e-05 
         -50      5.42852  3.51628e-06 -5.48512e-06  2.30895e-05 
         -50      5.50021  3.46762e-06 -5.36839e-06  2.31176e-05 
         -50      5.57231   3.4164e-06 -5.25322e-06  2.31454e-05 
         -50      5.64493  3.35999e-06 -5.13928e-06  2.31729e-05 
         -50      5.71803  3.31769e-06 -5.03196e-06  2.32001e-05 
         -50      5.79154  3.27306e-06 -4.92415e-06  2.32273e-05 
         -50      5.86558  3.22647e-06 -4.81691e-06  2.32544e-05 
         -50      5.94003  3.17862e-06  -4.7113e-06  2.32812e-05 
         -50      6.01501  3.13012e-06 -4.60771e-06  2.33079e-05 
         -50       6.0904  3.08178e-06  -4.5066e-06  2.33343e-05 
         -50      6.16632  3.03419e-06 -4.40786e-06  2.33606e-05 
         -50      6.24271  2.98794e-06 -4.31146e-06  2.33866e-05 
         -50       6.3195  2.94338e-06  -4.2172e-06  2.34125e-05 
         -50      6.39683  2.90053e-06 -4.12452e-06  2.34382e-05 
         -50      6.47457  2.85916e-06 -4.03306e-06   2.3464e-05 
         -50      6.55284  2.81849e-06 -3.94206e-06  2.34898e-05 
         -50      6.63152   2.7774e-06 -3.85096e-06  2.35159e-05 
         -50      6.71073  2.73404e-06 -3.75879e-06  2.35424e-05 
         -50      6.79034  2.69258e-06 -3.67324e-06  2.35672e-05 
         -50      6.87049  2.65201e-06 -3.59124e-06  2.35911e-05 
         -50      6.95111  2.61066e-06 -3.50984e-06  2.36152e-05 
         -50      7.03214  2.56898e-06  -3.4294e-06  2.36393e-05 
         -50       7.1137   2.5272e-06 -3.35004e-06  2.36633e-05 
         -50      7.19566  2.48562e-06 -3.27207e-06  2.36873e-05 
         -50      7.27816  2.44433e-06 -3.19551e-06  2.37112e-05 
         -50      7.36106  2.40351e-06 -3.12061e-06   2.3735e-05 
         -50      7.44451  2.36315e-06 -3.04732e-06  2.37585e-05 
         -50      7.52842  2.32333e-06 -2.97575e-06  2.37819e-05 
         -50      7.61273  2.28412e-06 -2.90597e-06   2.3805e-05 
         -50      7.69758  2.24557e-06 -2.83786e-06  2.38279e-05 
         -50      7.78283   2.2079e-06 -2.77148e-06  2.38504e-05 
         -50      7.86862  2.17135e-06 -2.70661e-06  2.38727e-05 
         -50      7.95481  2.13644e-06 -2.64322e-06  2.38947e-05 
         -50      8.04155  2.10382e-06 -2.58099e-06  2.39164e-05 
         -50      8.12868  2.06657e-06 -2.52001e-06  2.39379e-05 
         -50      8.21635  2.02923e-06 -2.46045e-06  2.39592e-05 
         -50      8.30449  1.99365e-06 -2.40234e-06  2.39803e-05 
         -50      8.39303  1.95957e-06 -2.34561e-06   2.4001e-05 
         -50      8.48211  1.92667e-06 -2.29009e-06  2.40216e-05 
         -50      8.57159  1.89473e-06 -2.23575e-06  2.40418e-05 
         -50      8.66161  1.86342e-06 -2.18242e-06  2.40618e-05 
         -50      8.75203  1.83253e-06 -2.13011e-06  2.40816e-05 
         -50      8.84299   1.8017e-06  -2.0787e-06  2.41011e-05 
         -50      8.93443  1.77061e-06 -2.02824e-06  2.41203e-05 
         -50      9.02626  1.73889e-06  -1.9788e-06  2.41393e-05 
         -50      9.11863  1.70597e-06 -1.93036e-06   2.4158e-05 
         -50      9.21139  1.67125e-06 -1.88306e-06  2.41763e-05 
         -50      9.30471  1.63383e-06 -1.83688e-06  2.41943e-05 
         -50      9.39841  1.60248e-06 -1.79101e-06  2.42125e-05 
         -50      9.49267  1.57857e-06 -1.74615e-06   2.4231e-05 
         -50      9.58739  1.55363e-06 -1.70304e-06  2.42491e-05 
         -50      9.68251  1.52794e-06 -1.66135e-06  2.42668e-05 
         -50      9.77817   1.5017e-06 -1.62073e-06  2.42843e-05 
         -50      9.87422  1.47515e-06 -1.58108e-06  2.43014e-05 
         -50      9.97083  1.44843e-06 -1.54223e-06  2.43182e-05 
         -50      10.0678  1.42174e-06 -1.50421e-06  2.43347e-05 
         -50      10.1654  1.39516e-06 -1.46696e-06  2.43509e-05 
         -50      10.2633  1.36885e-06 -1.43059e-06  2.43668e-05 
         -50      10.3618  1.34285e-06 -1.39508e-06  2.43824e-05 
         -50      10.4607  1.31723e-06 -1.36052e-06  2.43977e-05 
         -50      10.5601  1.29206e-06 -1.32698e-06  2.44128e-05 
         -50        10.66  1.26732e-06 -1.29444e-06  2.44275e-05 
         -50      10.7603  1.24305e-06 -1.26295e-06  2.44421e-05 
         -50      10.8611  1.21922e-06 -1.23245e-06  2.44564e-05 
         -50      10.9623  1.19583e-06 -1.20292e-06  2.44704e-05 
         -50      11.0641  1.17282e-06 -1.17423e-06  2.44842e-05 
         -50      11.1663  1.15019e-06 -1.14628e-06  2.44978e-05 
         -50       11.269  1.12792e-06 -1.11895e-06  2.45112e-05 
         -50      11.3721  1.10595e-06 -1.09204e-06  2.45244e-05 
         -50      11.4757   1.0843e-06 -1.06542e-06  2.45374e-05 
         -50      11.5798  1.06294e-06 -1.03891e-06  2.45502e-05 
         -50      11.6844  1.04193e-06 -1.01244e-06  2.45628e-05 
         -50      11.7894  1.02128e-06 -9.85921e-07  2.45752e-05 
         -50       11.895   1.0011e-06 -9.59414e-07  2.45874e-05 
         -50      12.0009  9.81532e-07 -9.33122e-07  2.45994e-05 
         -50      12.1073  9.62735e-07 -9.07353e-07  2.46111e-05 
         -50      12.2142  9.44981e-07 -8.82724e-07  2.46226e-05 
         -50      12.3216  9.28559e-07  -8.6005e-07  2.46337e-05 
         -50      12.4294  9.13893e-07 -8.40564e-07  2.46445e-05 
         -50      12.5378  9.01455e-07 -8.25845e-07   2.4655e-05 
         -50      12.6465  8.85307e-07 -8.11698e-07  2.46652e-05 
         -50      12.7558  8.55077e-07 -7.87042e-07  2.46751e-05 
         -50      12.8656  8.47093e-07 -7.69272e-07   2.4682e-05 
         -50      12.9757  8.35268e-07 -7.49963e-07  2.46896e-05 
         -50      13.0864  8.13492e-07 -7.25222e-07  2.47006e-05 
         -50      13.1975  7.93981e-07 -7.03117e-07  2.47111e-05 
         -50      13.3092  7.76173e-07 -6.83111e-07  2.47213e-05 
         -50      13.4212  7.59648e-07 -6.64802e-07   2.4731e-05 
         -50      13.5338  7.44013e-07 -6.47786e-07  2.47404e-05 
         -50      13.6468  7.28984e-07 -6.31764e-07  2.47494e-05 
         -50      13.7603  7.14347e-07 -6.16486e-07   2.4758e-05 
         -50      13.8743  6.99908e-07 -6.01718e-07  2.47662e-05 
         -50      13.9886  6.85577e-07 -5.87322e-07  2.47741e-05 
         -50      14.1036  6.71262e-07 -5.73154e-07  2.47817e-05 
         -50      14.2189  6.56961e-07 -5.59156e-07   2.4789e-05 
         -50      14.3348  6.42656e-07 -5.45258e-07   2.4796e-05 
         -50       14.451  6.28404e-07 -5.31465e-07  2.48028e-05 
         -50      14.5678   6.1424e-07 -5.17761e-07  2.48094e-05 
         -50      14.6851  6.00244e-07 -5.04185e-07  2.48157e-05 
         -50      14.8028  5.86506e-07 -4.90791e-07  2.48219e-05 
         -50       14.921  5.73088e-07  -4.7761e-07  2.48279e-05 
         -50      15.0396  5.60091e-07 -4.64723e-07  2.48338e-05 
         -50      15.1588  5.47565e-07 -4.52169e-07  2.48396e-05 
         -50      15.2783  5.35591e-07 -4.40023e-07  2.48453e-05 
         -50      15.3984  5.24189e-07 -4.28313e-07   2.4851e-05 
         -50       15.519   5.1339e-07  -4.1708e-07  2.48565e-05 
         -50        15.64  5.03197e-07 -4.06344e-07   2.4862e-05 
         -50      15.7615  4.93558e-07 -3.96076e-07  2.48674e-05 
         -50      15.8834  4.84424e-07 -3.86252e-07  2.48727e-05 
         -50      16.0058  4.75681e-07 -3.76779e-07  2.48779e-05 
         -50      16.1286  4.67209e-07 -3.67557e-07  2.48829e-05 
         -50       16.252  4.58827e-07 -3.58413e-07  2.48878e-05 
         -50      16.3759  4.50335e-07 -3.49147e-07  2.48925e-05 
         -50      16.5002  4.41504e-07 -3.39504e-07  2.48968e-05 
         -50       16.625  4.32049e-07 -3.29152e-07  2.49009e-05 
         -50      16.7501  4.15888e-07 -3.18798e-07  2.49037e-05 
         -50      16.8759  3.97747e-07 -3.10047e-07  2.49058e-05 
         -50       17.002  3.85103e-07 -3.02091e-07  2.49082e-05 
         -50      17.1287  3.76172e-07 -2.94747e-07  2.49108e-05 
         -50      17.2557   3.6956e-07 -2.87883e-07  2.49135e-05 
         -50      17.3834  3.64167e-07 -2.81364e-07  2.49163e-05 
         -50      17.5115  3.59188e-07 -2.75092e-07  2.49192e-05 
         -50      17.6399  3.54059e-07 -2.68991e-07  2.49221e-05 
         -50       17.769  3.48415e-07 -2.62988e-07  2.49249e-05 
         -50      17.8984  3.42079e-07 -2.57047e-07  2.49277e-05 
         -50      18.0284  3.34996e-07 -2.51131e-07  2.49303e-05 
         -50      18.1587  3.27242e-07 -2.45233e-07  2.49328e-05 
         -50      18.2896  3.18946e-07 -2.39344e-07  2.49351e-05 
         -50       18.421  3.10311e-07 -2.33476e-07  2.49373e-05 
         -50      18.5528  3.01563e-07 -2.27652e-07  2.49392e-05 
         -50      18.6851  2.92911e-07 -2.21883e-07  2.49409e-05 
         -50      18.8178  2.84578e-07 -2.16205e-07  2.49423e-05 
         -50      18.9511  2.76722e-07 -2.10632e-07  2.49435e-05 
         -50      19.0847  2.69482e-07 -2.05194e-07  2.49445e-05 
         -50      19.2189  2.62915e-07 -1.99894e-07  2.49452e-05 
         -50      19.3535  2.57037e-07 -1.94744e-07  2.49458e-05 
         -50      19.4886  2.51779e-07  -1.8972e-07  2.49461e-05 
         -50      19.6242  2.47026e-07 -1.84792e-07  2.49463e-05 
         -50      19.7602  2.42605e-07 -1.79903e-07  2.49463e-05 
         -50      19.8968  2.38294e-07 -1.74954e-07  2.49463e-05 
         -50      20.0337  2.33863e-07 -1.69827e-07  2.49462e-05 
         -50      20.1712  2.29071e-07 -1.64344e-07  2.49462e-05 
         -50      20.3091  2.22449e-07 -1.58665e-07  2.49466e-05 
         -50      20.4475  2.12571e-07 -1.53677e-07  2.49478e-05 
         -50      20.5864  2.04704e-07 -1.48578e-07  2.49484e-05 
         -50      20.7257  1.98762e-07 -1.43955e-07  2.49484e-05 
         -50      20.8655  1.94767e-07 -1.40581e-07  2.49479e-05 
         -50      21.0058  1.92895e-07 -1.39471e-07  2.49471e-05 
         -50      21.1465  1.93488e-07 -1.41899e-07  2.49461e-05 
         -50      21.2877  2.01399e-07 -1.40411e-07   2.4944e-05 
         -50      21.4294  2.02107e-07 -1.32574e-07  2.49414e-05 
         -50      21.5716  1.95316e-07 -1.28149e-07  2.49396e-05 
         -50      21.7142  1.89599e-07 -1.25674e-07  2.49382e-05 
         -50      21.8573  1.88299e-07 -1.24212e-07  2.49368e-05 
         -50      22.0008  1.82407e-07  -1.2146e-07  2.49358e-05 
         -50      22.1449  1.62872e-07  -1.1602e-07  2.49362e-05 
         -50      22.2893    1.491e-07 -1.11899e-07  2.49362e-05 
         -50      22.4344  1.40452e-07 -1.08746e-07  2.49358e-05 
         -50      22.5797  1.36128e-07 -1.06231e-07   2.4935e-05 
         -50      22.7257  1.35181e-07 -1.04046e-07  2.49339e-05 
         -50      22.8721  1.36613e-07 -1.01933e-07  2.49324e-05 
         -50      23.0189  1.39422e-07 -9.96939e-08  2.49307e-05 
         -50      23.1663   1.4267e-07 -9.71921e-08  2.49287e-05 
         -50       23.314  1.45515e-07 -9.43715e-08  2.49265e-05 
         -50      23.4623  1.47268e-07 -9.12393e-08  2.49241e-05 
         -50       23.611  1.47412e-07 -8.78789e-08  2.49215e-05 
         -50      23.7602  1.45631e-07 -8.44201e-08  2.49189e-05 
         -50        23.91  1.41826e-07  -8.1041e-08  2.49161e-05 
         -50        24.06  1.36125e-07 -7.79382e-08  2.49133e-05 
         -50      24.2107  1.28852e-07 -7.52911e-08  2.49104e-05 
         -50      24.3617   1.2055e-07 -7.32429e-08  2.49075e-05 
         -50      24.5133  1.11905e-07  -7.1843e-08  2.49047e-05 
         -50      24.6653   1.0375e-07 -7.10097e-08  2.49018e-05 
         -50      24.8178  9.69619e-08 -7.04635e-08  2.48989e-05 
         -50      24.9708  9.24348e-08 -6.96672e-08   2.4896e-05 
         -50      25.1242  9.09663e-08 -6.77508e-08  2.48932e-05 
         -50      25.2781  9.31604e-08 -6.34211e-08  2.48902e-05 
         -50      25.4324  9.93102e-08 -5.48863e-08  2.48873e-05 
         -50      25.5873  1.08489e-07 -5.80495e-08   2.4885e-05 
         -50      25.7426  1.05594e-07  -5.8464e-08  2.48826e-05 
         -50      25.8984  9.60314e-08 -5.60442e-08    2.488e-05 
         -50      26.0546  8.48314e-08 -5.20808e-08  2.48773e-05 
         -50      26.2114  7.54473e-08 -4.76861e-08  2.48744e-05 
         -50      26.3686  6.96514e-08 -4.38031e-08  2.48714e-05 
         -50      26.5262  6.75701e-08 -4.11615e-08  2.48682e-05 
         -50      26.6844  6.80048e-08 -4.02143e-08  2.48648e-05 
         -50      26.8429  6.90139e-08 -4.10647e-08  2.48612e-05 
         -50       27.002   6.8756e-08 -4.33463e-08  2.48574e-05 
         -50      27.1615  6.66262e-08 -4.60753e-08  2.48533e-05 
         -50      27.3216  6.46957e-08 -4.74853e-08  2.48492e-05 
         -50      27.4821  6.94924e-08  -4.4803e-08   2.4845e-05 
         -50       27.643  6.49531e-08 -4.29497e-08  2.48414e-05 
         -50      27.8044  5.39273e-08 -4.33853e-08  2.48379e-05 
         -50      27.9663  4.77332e-08 -4.29444e-08  2.48342e-05 
         -50      28.1287  4.50412e-08 -4.18753e-08  2.48305e-05 
         -50      28.2914  4.47479e-08 -4.03867e-08  2.48266e-05 
         -50      28.4548  4.59375e-08 -3.86459e-08  2.48227e-05 
         -50      28.6185  4.78704e-08 -3.67909e-08  2.48187e-05 
         -50      28.7828  4.99713e-08 -3.49238e-08  2.48145e-05 
         -50      28.9475  5.18039e-08 -3.31241e-08  2.48103e-05 
         -50      29.1126  5.30604e-08 -3.14475e-08   2.4806e-05 
         -50      29.2784  5.35477e-08 -2.99256e-08  2.48017e-05 
         -50      29.4444  5.31664e-08 -2.85779e-08  2.47973e-05 
         -50       29.611   5.1899e-08 -2.74056e-08  2.47928e-05 
         -50       29.778  4.97975e-08 -2.64026e-08  2.47883e-05 
         -50      29.9456  4.69624e-08 -2.55511e-08  2.47837e-05 
         -50      30.1137  4.35388e-08 -2.48299e-08  2.47791e-05 
         -50      30.2821  3.97017e-08  -2.4214e-08  2.47744e-05 
         -50      30.4511  3.56327e-08 -2.36754e-08  2.47697e-05 
         -50      30.6204   3.1531e-08 -2.31887e-08  2.47649e-05 
         -50      30.7903  2.75781e-08 -2.27291e-08  2.47601e-05 
         -50      30.9606  2.39543e-08 -2.22769e-08  2.47553e-05 
         -50      31.1315  2.08062e-08 -2.18155e-08  2.47504e-05 
         -50      31.3028  1.82609e-08 -2.13349e-08  2.47454e-05 
         -50      31.4745  1.64088e-08 -2.08311e-08  2.47405e-05 
         -50      31.6468  1.52977e-08  -2.0305e-08  2.47355e-05 
         -50      31.8194  1.49382e-08 -1.97649e-08  2.47304e-05 
         -50      31.9926  1.52953e-08 -1.92227e-08  2.47254e-05 
         -50      32.1662  1.62903e-08  -1.8696e-08  2.47203e-05 
         -50      32.3404   1.7805e-08 -1.82036e-08  2.47152e-05 
         -50      32.5149  1.96783e-08 -1.77666e-08  2.47101e-05 
         -50        32.69  2.17208e-08 -1.74032e-08  2.47049e-05 
         -50      32.8655  2.37119e-08 -1.71281e-08  2.46998e-05 
         -50      33.0414  2.54131e-08 -1.69479e-08  2.46947e-05 
         -50       33.218  2.65831e-08 -1.68568e-08  2.46896e-05 
         -50      33.3948  2.69827e-08 -1.68334e-08  2.46845e-05 
         -50      33.5723  2.63966e-08 -1.68345e-08  2.46795e-05 
         -50        33.75  2.46499e-08 -1.67896e-08  2.46745e-05 
         -50      33.9284  2.16239e-08 -1.65946e-08  2.46696e-05 
         -50      34.1073  1.72866e-08 -1.61046e-08  2.46648e-05 
         -50      34.2865  1.17194e-08  -1.5127e-08  2.46601e-05 
         -50      34.4663  5.12752e-09 -1.34099e-08  2.46555e-05 
         -50      34.6465 -2.09552e-09 -1.06393e-08   2.4651e-05 
         -50      34.8272 -9.37334e-09 -6.41723e-09  2.46468e-05 
         -50      35.0083 -5.80203e-09 -7.32684e-09  2.46408e-05 
         -50        35.19  8.28757e-09 -1.17605e-08  2.46332e-05 
         -50      35.3721  2.73881e-08 -1.50036e-08  2.46254e-05 
         -50      35.5546  4.44623e-08 -1.68696e-08  2.46181e-05 
         -50      35.7377  2.23071e-08 -1.45716e-08  2.46138e-05 
         -50      35.9211  7.20065e-09 -1.21151e-08  2.46092e-05 
         -50      36.1052 -2.26096e-09 -9.50893e-09  2.46042e-05 
         -50      36.2895 -7.28662e-09 -6.78339e-09   2.4599e-05 
         -50      36.4745 -8.96372e-09 -3.97032e-09  2.45935e-05 
         -50      36.6598 -8.23068e-09 -1.11712e-09  2.45879e-05 
         -50      36.8457 -5.67308e-09  1.51937e-09   2.4582e-05 
         -50      37.0321  9.98396e-10  5.46055e-10  2.45757e-05 
         -50      37.2188  6.87242e-09 -3.25275e-10  2.45695e-05 
         -50      37.4062  1.17333e-08 -1.16499e-09  2.45632e-05 
         -50      37.5938  1.54561e-08 -2.00817e-09  2.45571e-05 
         -50      37.7821  1.80202e-08 -2.86631e-09  2.45509e-05 
         -50      37.9707   1.9469e-08 -3.72773e-09  2.45448e-05 
         -50      38.1599  1.99108e-08 -4.56862e-09  2.45388e-05 
         -50      38.3496   1.9494e-08 -5.35332e-09  2.45327e-05 
         -50      38.5396  1.83993e-08 -6.04133e-09  2.45267e-05 
         -50      38.7302  1.68215e-08 -6.59311e-09  2.45207e-05 
         -50      38.9211  1.49642e-08 -6.97027e-09  2.45146e-05 
         -50      39.1127  1.30203e-08  -7.1424e-09  2.45086e-05 
         -50      39.3046  1.11733e-08 -7.08751e-09  2.45026e-05 
         -50      39.4971  9.57741e-09 -6.79534e-09  2.44966e-05 
         -50      39.6899  8.36167e-09 -6.26944e-09  2.44906e-05 
         -50      39.8833  7.61513e-09 -5.52631e-09  2.44845e-05 
         -50      40.0772   7.3902e-09 -4.59835e-09  2.44784e-05 
         -50      40.2714  7.69557e-09 -3.53292e-09  2.44722e-05 
         -50      40.4663   8.4982e-09 -2.38809e-09   2.4466e-05 
         -50      40.6615  9.72179e-09 -1.23698e-09  2.44598e-05 
         -50      40.8573  1.12547e-08 -1.58084e-10  2.44535e-05 
         -50      41.0534  1.29473e-08  7.61089e-10  2.44472e-05 
         -50      41.2501  1.46286e-08  1.43486e-09  2.44408e-05 
         -50      41.4473  1.61061e-08  1.77921e-09  2.44343e-05 
         -50      41.6448  1.71818e-08  1.72131e-09  2.44278e-05 
         -50      41.8429  1.76683e-08  1.20541e-09  2.44213e-05 
         -50      42.0414  1.73996e-08  2.02269e-10  2.44147e-05 
         -50      42.2405  1.62531e-08 -1.28492e-09  2.44081e-05 
         -50      42.4399  1.41727e-08 -3.20374e-09  2.44014e-05 
         -50      42.6399  1.11857e-08  -5.4502e-09  2.43948e-05 
         -50      42.8404   7.4398e-09 -7.84596e-09  2.43882e-05 
         -50      43.0412  3.23112e-09 -1.01284e-08  2.43816e-05 
         -50      43.2426 -9.75502e-10 -1.19409e-08  2.43751e-05 
         -50      43.4444 -4.48663e-09 -1.28049e-08  2.43687e-05 
         -50      43.6467 -6.36478e-09  -1.2111e-08  2.43624e-05 
         -50      43.8494 -5.36596e-09 -9.09628e-09  2.43563e-05 
         -50      44.0527   9.9913e-11 -2.81581e-09  2.43504e-05 
         -50      44.2563  1.19737e-08  7.29348e-09  2.43447e-05 
         -50      44.4606  2.33014e-08 -2.93755e-09  2.43368e-05 
         -50      44.6653  2.94154e-08 -1.00457e-08  2.43294e-05 
         -50      44.8704  3.11701e-08 -1.45663e-08  2.43223e-05 
         -50       45.076  2.94075e-08 -1.70095e-08  2.43156e-05 
         -50       45.282  2.49655e-08 -1.78297e-08  2.43092e-05 
         -50      45.4886  1.86834e-08 -1.74338e-08  2.43029e-05 
         -50      45.6955  1.14417e-08 -1.61645e-08  2.42967e-05 
         -50       45.903  4.14126e-09 -1.42889e-08  2.42905e-05 
         -50      46.1111 -2.23976e-09 -1.19931e-08  2.42841e-05 
         -50      46.3194 -6.64756e-09 -9.37004e-09  2.42776e-05 
         -50      46.5283 -7.93848e-09 -6.40001e-09  2.42708e-05 
         -50      46.7376 -4.83795e-09 -2.95472e-09  2.42635e-05 
         -50      46.9475  4.08093e-09   1.2344e-09  2.42557e-05 
         -50      47.1577   2.0399e-08  6.56568e-09  2.42473e-05 
         -50      47.3685  2.82807e-08  8.22285e-09  2.42399e-05 
         -50      47.5798  1.29263e-08   2.4103e-09  2.42349e-05 
         -50      47.7914  1.84407e-09 -2.07681e-09  2.42295e-05 
         -50      48.0037 -5.64288e-09  -5.3547e-09  2.42237e-05 