Variables = x, y, u, v, p

Zone, I=20800, F=POINT
         -50            0            0            0  0.000356675 
         -50     0.000234  1.42604e-08  -4.8908e-11  0.000356675 
         -50     0.000939  5.65376e-08 -1.71724e-10  0.000356675 
         -50     0.002113  1.24668e-07 -2.97103e-10  0.000356676 
         -50     0.003759  2.15462e-07 -3.14545e-10  0.000356676 
         -50     0.005872   3.2406e-07 -8.22271e-11  0.000356676 
         -50     0.008457  4.45001e-07  5.67279e-10  0.000356676 
         -50      0.01151  5.71378e-07  1.82462e-09  0.000356676 
         -50     0.015036  6.95825e-07  3.91548e-09  0.000356676 
         -50     0.019031  8.09953e-07  7.10678e-09  0.000356677 
         -50     0.023493  9.05065e-07  1.17252e-08  0.000356677 
         -50     0.028429  9.72396e-07  1.81785e-08  0.000356677 
         -50     0.033831  1.00298e-06  2.69202e-08  0.000356677 
         -50     0.039706  9.88356e-07  3.84581e-08  0.000356678 
         -50     0.046047  9.20697e-07  5.32526e-08  0.000356678 
         -50     0.052863  7.93041e-07   7.1716e-08  0.000356679 
         -50      0.06015  5.99838e-07  9.41293e-08  0.000356679 
         -50       0.0679  3.37338e-07   1.2078e-07   0.00035668 
         -50     0.076126  2.64832e-09  1.52512e-07   0.00035668 
         -50     0.084816  -4.0515e-07  1.91356e-07  0.000356681 
         -50     0.093982 -8.84743e-07  2.33451e-07  0.000356681 
         -50     0.103611 -1.43117e-06  2.79866e-07  0.000356682 
         -50     0.113718  -2.0417e-06  3.34023e-07  0.000356683 
         -50     0.124286 -2.70937e-06  3.96897e-07  0.000356684 
         -50     0.135333  -3.4272e-06  4.67729e-07  0.000356684 
         -50      0.14685 -4.18474e-06  5.44461e-07  0.000356685 
         -50     0.158827 -4.97024e-06  6.25024e-07  0.000356686 
         -50     0.171284 -5.77339e-06  7.08827e-07  0.000356686 
         -50     0.184201 -6.58154e-06  7.97293e-07  0.000356687 
         -50     0.197599 -7.38548e-06  8.94509e-07  0.000356688 
         -50     0.211455 -8.17446e-06  1.00491e-06  0.000356689 
         -50     0.225792 -8.94125e-06  1.12915e-06   0.00035669 
         -50       0.2406 -9.67609e-06  1.25377e-06  0.000356689 
         -50     0.255865 -1.03582e-05  1.38083e-06  0.000356689 
         -50     0.271613 -1.09994e-05  1.57823e-06  0.000356692 
         -50     0.287818 -1.15934e-05  1.76616e-06  0.000356692 
         -50     0.304506 -1.21141e-05  1.90645e-06  0.000356692 
         -50      0.32165 -1.25443e-05  1.97552e-06  0.000356691 
         -50     0.339278 -1.28789e-05  1.96555e-06  0.000356693 
         -50     0.357377 -1.31208e-05  1.88324e-06  0.000356696 
         -50      0.37593 -1.32807e-05  1.74866e-06  0.000356703 
         -50     0.394968 -1.33749e-05  1.59224e-06  0.000356711 
         -50     0.414461 -1.34218e-05  1.45225e-06  0.000356721 
         -50      0.43444 -1.34395e-05  1.37003e-06  0.000356732 
         -50     0.454872 -1.34427e-05  1.38662e-06  0.000356741 
         -50     0.475791 -1.34408e-05  1.53815e-06  0.000356747 
         -50     0.497163  -1.3437e-05  1.85217e-06  0.000356748 
         -50     0.519021 -1.34293e-05  2.34645e-06  0.000356741 
         -50      0.54135 -1.34144e-05  3.02769e-06  0.000356726 
         -50     0.564131 -1.33963e-05  3.89485e-06  0.000356701 
         -50       0.5874 -1.33994e-05  4.94996e-06  0.000356668 
         -50     0.611121 -1.34434e-05  5.98877e-06  0.000356629 
         -50      0.63533 -1.30935e-05  4.99704e-06  0.000356612 
         -50      0.65999 -1.27552e-05  4.17483e-06  0.000356612 
         -50     0.685139 -1.24286e-05   3.5339e-06  0.000356626 
         -50     0.710759  -1.2114e-05  3.07974e-06  0.000356649 
         -50     0.736828 -1.18113e-05  2.80933e-06  0.000356677 
         -50     0.763387 -1.15189e-05  2.71151e-06  0.000356707 
         -50     0.790396 -1.12359e-05  2.76893e-06  0.000356736 
         -50     0.817896 -1.09597e-05  2.95826e-06  0.000356761 
         -50     0.845843 -1.06888e-05  3.25109e-06  0.000356781 
         -50     0.874283 -1.04201e-05  3.61642e-06  0.000356793 
         -50      0.90317 -1.01514e-05  4.02041e-06  0.000356798 
         -50     0.932551 -9.87977e-06  4.43031e-06  0.000356795 
         -50     0.962401  -9.6028e-06  4.81403e-06  0.000356784 
         -50     0.992697 -9.31841e-06  5.14309e-06  0.000356767 
         -50      1.02349 -9.02416e-06  5.39505e-06  0.000356745 
         -50      1.05472   -8.719e-06  5.55342e-06   0.00035672 
         -50      1.08645 -8.40141e-06   5.6107e-06  0.000356694 
         -50      1.11863 -8.07147e-06  5.56831e-06  0.000356671 
         -50       1.1513 -7.72885e-06  5.43757e-06  0.000356653 
         -50      1.18444 -7.37458e-06  5.23945e-06  0.000356641 
         -50      1.21802 -7.01022e-06  5.00369e-06   0.00035664 
         -50      1.25211 -6.63675e-06  4.76576e-06  0.000356649 
         -50      1.28663 -6.25643e-06  4.56458e-06  0.000356668 
         -50      1.32165 -5.86993e-06  4.43588e-06  0.000356697 
         -50      1.35712 -5.47832e-06  4.40613e-06  0.000356732 
         -50      1.39308 -5.07988e-06  4.48223e-06  0.000356766 
         -50      1.42951 -4.67134e-06  4.63947e-06  0.000356791 
         -50      1.46638 -4.24599e-06   4.8057e-06  0.000356793 
         -50      1.50375 -3.79114e-06  4.84272e-06  0.000356754 
         -50      1.54156 -3.39363e-06  4.74336e-06  0.000356761 
         -50      1.57987 -3.01801e-06  4.66057e-06  0.000356772 
         -50      1.61863 -2.65839e-06  4.59132e-06  0.000356782 
         -50      1.65788 -2.31323e-06  4.53252e-06  0.000356791 
         -50      1.69757 -1.98225e-06  4.48154e-06  0.000356801 
         -50      1.73776 -1.66417e-06  4.43581e-06  0.000356809 
         -50      1.77842 -1.35866e-06  4.39316e-06  0.000356818 
         -50      1.81952 -1.06547e-06  4.35166e-06  0.000356826 
         -50      1.86113 -7.83748e-07  4.30958e-06  0.000356834 
         -50      1.90316 -5.13709e-07  4.26556e-06  0.000356843 
         -50      1.94571 -2.54768e-07   4.2184e-06  0.000356851 
         -50      1.98869  -7.2976e-09   4.1673e-06   0.00035686 
         -50      2.03217  2.29065e-07  4.11153e-06  0.000356869 
         -50      2.07612  4.53993e-07  4.05075e-06  0.000356878 
         -50      2.12051  6.67145e-07  3.98483e-06  0.000356888 
         -50       2.1654  8.68625e-07  3.91372e-06  0.000356898 
         -50      2.21073  1.05785e-06  3.83775e-06  0.000356909 
         -50      2.25656  1.23485e-06  3.75716e-06   0.00035692 
         -50      2.30283  1.39906e-06  3.67262e-06  0.000356932 
         -50       2.3496  1.55049e-06   3.5846e-06  0.000356944 
         -50      2.39685  1.68878e-06  3.49388e-06  0.000356957 
         -50      2.44452  1.81367e-06  3.40128e-06   0.00035697 
         -50      2.49271  1.92529e-06  3.30743e-06  0.000356984 
         -50      2.54132  2.02347e-06  3.21322e-06  0.000356999 
         -50      2.59044  2.10848e-06  3.11923e-06  0.000357014 
         -50         2.64  2.18043e-06  3.02623e-06  0.000357029 
         -50      2.69006  2.23982e-06  2.93462e-06  0.000357045 
         -50      2.74056  2.28707e-06  2.84497e-06  0.000357061 
         -50      2.79156  2.32294e-06   2.7574e-06  0.000357077 
         -50      2.84304  2.34821e-06  2.67212e-06  0.000357094 
         -50      2.89494  2.36383e-06  2.58913e-06  0.000357111 
         -50      2.94735  2.37094e-06  2.50811e-06  0.000357128 
         -50       3.0002  2.37073e-06   2.4288e-06  0.000357144 
         -50      3.05355  2.36451e-06   2.3506e-06  0.000357161 
         -50      3.10733  2.35362e-06  2.27301e-06  0.000357178 
         -50      3.16163   2.3394e-06  2.19527e-06  0.000357195 
         -50      3.21639  2.32313e-06  2.11679e-06  0.000357211 
         -50      3.27158  2.30595e-06  2.03708e-06  0.000357228 
         -50      3.32729  2.28876e-06  1.95566e-06  0.000357244 
         -50      3.38342  2.27213e-06  1.87263e-06  0.000357261 
         -50      3.44007  2.25612e-06  1.78831e-06  0.000357278 
         -50      3.49714  2.24025e-06  1.70395e-06  0.000357294 
         -50      3.55472  2.22314e-06  1.62142e-06  0.000357312 
         -50      3.61273   2.2025e-06  1.54397e-06   0.00035733 
         -50      3.67125  2.17475e-06  1.47605e-06  0.000357349 
         -50      3.73025  2.13485e-06  1.42407e-06  0.000357369 
         -50      3.78967   2.0947e-06   1.3572e-06  0.000357387 
         -50      3.84961  2.06328e-06  1.28102e-06  0.000357403 
         -50      3.90996  2.03516e-06  1.21021e-06   0.00035742 
         -50      3.97084  2.00921e-06  1.14837e-06  0.000357437 
         -50      4.03214  1.98272e-06  1.08817e-06  0.000357454 
         -50      4.09395  1.95541e-06  1.02847e-06  0.000357472 
         -50      4.15624  1.92733e-06  9.69309e-07   0.00035749 
         -50      4.21895  1.89863e-06  9.10813e-07  0.000357508 
         -50      4.28217  1.86948e-06  8.53011e-07  0.000357525 
         -50      4.34582  1.84017e-06  7.96157e-07  0.000357543 
         -50      4.40998  1.81091e-06  7.40338e-07  0.000357561 
         -50      4.47457    1.782e-06  6.85824e-07  0.000357578 
         -50      4.53968  1.75357e-06   6.3269e-07  0.000357595 
         -50      4.60525  1.72581e-06  5.81115e-07  0.000357612 
         -50      4.67125   1.6988e-06  5.31234e-07  0.000357629 
         -50      4.73777  1.67249e-06  4.83014e-07  0.000357645 
         -50       4.8047   1.6468e-06  4.36524e-07  0.000357661 
         -50      4.87216  1.62152e-06  3.91626e-07  0.000357677 
         -50      4.94003  1.59644e-06   3.4828e-07  0.000357693 
         -50      5.00843  1.57123e-06  3.06261e-07  0.000357709 
         -50      5.07724  1.54563e-06  2.65455e-07  0.000357725 
         -50      5.14658  1.51936e-06  2.25608e-07   0.00035774 
         -50      5.21639  1.49232e-06  1.86591e-07  0.000357755 
         -50      5.28661  1.46457e-06  1.48334e-07  0.000357771 
         -50      5.35736  1.43644e-06  1.10784e-07  0.000357786 
         -50      5.42852  1.40874e-06  7.41797e-08    0.0003578 
         -50      5.50021  1.38275e-06  3.88749e-08  0.000357815 
         -50      5.57231  1.36056e-06  5.65826e-09  0.000357829 
         -50      5.64493  1.34509e-06  -2.4376e-08  0.000357843 
         -50      5.71803     1.31e-06 -5.42229e-08  0.000357857 
         -50      5.79154  1.28019e-06 -8.28299e-08  0.000357871 
         -50      5.86558  1.25506e-06 -1.11246e-07  0.000357885 
         -50      5.94003  1.23376e-06 -1.39737e-07  0.000357898 
         -50      6.01501  1.21509e-06 -1.68153e-07  0.000357911 
         -50       6.0904  1.19776e-06 -1.95932e-07  0.000357923 
         -50      6.16632  1.18042e-06 -2.22466e-07  0.000357936 
         -50      6.24271  1.16184e-06 -2.47125e-07  0.000357948 
         -50       6.3195  1.14109e-06 -2.69509e-07   0.00035796 
         -50      6.39683  1.11766e-06 -2.89667e-07  0.000357972 
         -50      6.47457  1.09178e-06 -3.08134e-07  0.000357983 
         -50      6.55284  1.06452e-06 -3.26217e-07  0.000357994 
         -50      6.63152   1.0382e-06 -3.46001e-07  0.000358005 
         -50      6.71073  1.01654e-06 -3.70597e-07  0.000358015 
         -50      6.79034   9.9586e-07 -3.88564e-07  0.000358025 
         -50      6.87049  9.75993e-07 -4.03282e-07  0.000358035 
         -50      6.95111  9.58365e-07 -4.19256e-07  0.000358044 
         -50      7.03214  9.41915e-07  -4.3561e-07  0.000358053 
         -50       7.1137  9.25775e-07 -4.51716e-07  0.000358062 
         -50      7.19566  9.09361e-07 -4.67095e-07  0.000358071 
         -50      7.27816  8.92247e-07 -4.81488e-07  0.000358079 
         -50      7.36106  8.74262e-07 -4.94748e-07  0.000358087 
         -50      7.44451  8.55354e-07 -5.06901e-07  0.000358094 
         -50      7.52842  8.35663e-07  -5.1805e-07  0.000358102 
         -50      7.61273  8.15449e-07 -5.28387e-07  0.000358109 
         -50      7.69758  7.94999e-07 -5.38186e-07  0.000358115 
         -50      7.78283  7.74697e-07 -5.47722e-07  0.000358122 
         -50      7.86862  7.54838e-07 -5.57307e-07  0.000358127 
         -50      7.95481  7.35697e-07 -5.67199e-07  0.000358132 
         -50      8.04155  7.17334e-07 -5.77637e-07  0.000358137 
         -50      8.12868  7.01653e-07 -5.85375e-07  0.000358142 
         -50      8.21635  6.87668e-07 -5.92223e-07  0.000358147 
         -50      8.30449  6.74169e-07 -5.98935e-07  0.000358152 
         -50      8.39303  6.60484e-07 -6.05453e-07  0.000358156 
         -50      8.48211  6.46031e-07 -6.11789e-07  0.000358159 
         -50      8.57159  6.30425e-07 -6.17966e-07  0.000358162 
         -50      8.66161  6.13433e-07 -6.24034e-07  0.000358165 
         -50      8.75203  5.95123e-07     -6.3e-07  0.000358167 
         -50      8.84299  5.75826e-07 -6.35841e-07  0.000358169 
         -50      8.93443  5.56307e-07 -6.41437e-07  0.000358171 
         -50      9.02626  5.37825e-07  -6.4656e-07  0.000358172 
         -50      9.11863  5.22189e-07 -6.50848e-07  0.000358174 
         -50      9.21139  5.11982e-07  -6.5375e-07  0.000358175 
         -50      9.30471  5.10611e-07 -6.54516e-07  0.000358176 
         -50      9.39841  5.01051e-07 -6.55395e-07  0.000358176 
         -50      9.49267  4.78679e-07 -6.58167e-07  0.000358176 
         -50      9.58739   4.6067e-07  -6.6047e-07  0.000358174 
         -50      9.68251  4.45975e-07 -6.62288e-07  0.000358173 
         -50      9.77817  4.33661e-07 -6.63627e-07  0.000358172 
         -50      9.87422  4.22978e-07 -6.64506e-07   0.00035817 
         -50      9.97083  4.13276e-07 -6.64958e-07  0.000358168 
         -50      10.0678  4.04064e-07 -6.65024e-07  0.000358166 
         -50      10.1654  3.94942e-07  -6.6475e-07  0.000358163 
         -50      10.2633  3.85648e-07 -6.64188e-07   0.00035816 
         -50      10.3618  3.75995e-07 -6.63384e-07  0.000358157 
         -50      10.4607  3.65907e-07 -6.62385e-07  0.000358154 
         -50      10.5601  3.55394e-07 -6.61232e-07   0.00035815 
         -50        10.66  3.44505e-07 -6.59956e-07  0.000358146 
         -50      10.7603  3.33383e-07 -6.58583e-07  0.000358142 
         -50      10.8611  3.22178e-07 -6.57122e-07  0.000358138 
         -50      10.9623  3.11103e-07 -6.55578e-07  0.000358133 
         -50      11.0641  3.00353e-07 -6.53939e-07  0.000358128 
         -50      11.1663  2.90146e-07 -6.52185e-07  0.000358122 
         -50       11.269  2.80681e-07 -6.50287e-07  0.000358116 
         -50      11.3721  2.72097e-07 -6.48203e-07   0.00035811 
         -50      11.4757   2.6451e-07 -6.45892e-07  0.000358104 
         -50      11.5798  2.57936e-07 -6.43302e-07  0.000358097 
         -50      11.6844   2.5232e-07 -6.40392e-07   0.00035809 
         -50      11.7894  2.47474e-07 -6.37119e-07  0.000358083 
         -50       11.895  2.43085e-07 -6.33459e-07  0.000358075 
         -50      12.0009  2.38682e-07  -6.2941e-07  0.000358066 
         -50      12.1073  2.33599e-07 -6.24989e-07  0.000358058 
         -50      12.2142  2.26981e-07 -6.20267e-07  0.000358048 
         -50      12.3216  2.17717e-07 -6.15348e-07  0.000358039 
         -50      12.4294  2.04465e-07 -6.10414e-07  0.000358028 
         -50      12.5378   1.8556e-07  -6.0571e-07  0.000358017 
         -50      12.6465  1.74563e-07 -6.02615e-07  0.000358006 
         -50      12.7558  1.94808e-07 -6.01977e-07  0.000357997 
         -50      12.8656  1.69617e-07 -6.03438e-07  0.000357987 
         -50      12.9757  1.53628e-07 -6.00051e-07  0.000357976 
         -50      13.0864   1.5404e-07 -5.92902e-07  0.000357966 
         -50      13.1975  1.51012e-07 -5.86355e-07  0.000357956 
         -50      13.3092  1.46145e-07 -5.80273e-07  0.000357946 
         -50      13.4212  1.40643e-07 -5.74568e-07  0.000357935 
         -50      13.5338  1.35335e-07  -5.6916e-07  0.000357924 
         -50      13.6468   1.3076e-07 -5.64001e-07  0.000357912 
         -50      13.7603  1.27195e-07  -5.5906e-07    0.0003579 
         -50      13.8743  1.24707e-07 -5.54307e-07  0.000357888 
         -50      13.9886  1.23208e-07 -5.49732e-07  0.000357875 
         -50      14.1036   1.2249e-07 -5.45314e-07  0.000357862 
         -50      14.2189  1.22275e-07 -5.41049e-07  0.000357848 
         -50      14.3348  1.22244e-07 -5.36913e-07  0.000357834 
         -50       14.451  1.22078e-07 -5.32894e-07   0.00035782 
         -50      14.5678  1.21485e-07 -5.28958e-07  0.000357805 
         -50      14.6851  1.20224e-07 -5.25075e-07  0.000357791 
         -50      14.8028  1.18131e-07 -5.21205e-07  0.000357776 
         -50       14.921  1.15123e-07 -5.17293e-07  0.000357761 
         -50      15.0396   1.1122e-07  -5.1329e-07  0.000357745 
         -50      15.1588  1.06529e-07 -5.09131e-07   0.00035773 
         -50      15.2783  1.01259e-07 -5.04763e-07  0.000357714 
         -50      15.3984  9.56813e-08 -5.00124e-07  0.000357698 
         -50       15.519  9.01321e-08 -4.95171e-07  0.000357682 
         -50        15.64  8.49686e-08 -4.89879e-07  0.000357666 
         -50      15.7615  8.05144e-08 -4.84233e-07  0.000357649 
         -50      15.8834  7.70337e-08  -4.7827e-07  0.000357632 
         -50      16.0058  7.46393e-08 -4.72052e-07  0.000357616 
         -50      16.1286  7.32378e-08 -4.65718e-07  0.000357598 
         -50       16.252  7.24236e-08 -4.59457e-07  0.000357581 
         -50      16.3759   7.1385e-08 -4.53561e-07  0.000357563 
         -50      16.5002  6.87829e-08 -4.48426e-07  0.000357545 
         -50       16.625  6.26098e-08 -4.44558e-07  0.000357526 
         -50      16.7501  6.80666e-08 -4.40599e-07  0.000357508 
         -50      16.8759   8.0744e-08 -4.34671e-07  0.000357489 
         -50       17.002  8.15878e-08  -4.2872e-07   0.00035747 
         -50      17.1287  7.53534e-08 -4.22928e-07  0.000357451 
         -50      17.2557  6.57191e-08 -4.17419e-07  0.000357432 
         -50      17.3834  5.53851e-08  -4.1223e-07  0.000357413 
         -50      17.5115  4.62421e-08 -4.07363e-07  0.000357393 
         -50      17.6399   3.9465e-08 -4.02779e-07  0.000357373 
         -50       17.769  3.56173e-08 -3.98399e-07  0.000357352 
         -50      17.8984  3.47966e-08 -3.94144e-07  0.000357332 
         -50      18.0284  3.67176e-08 -3.89913e-07  0.000357311 
         -50      18.1587  4.08207e-08 -3.85625e-07   0.00035729 
         -50      18.2896  4.63774e-08 -3.81194e-07  0.000357269 
         -50       18.421  5.25598e-08 -3.76565e-07  0.000357247 
         -50      18.5528  5.85288e-08 -3.71708e-07  0.000357226 
         -50      18.6851  6.35212e-08  -3.6661e-07  0.000357204 
         -50      18.8178  6.68799e-08 -3.61307e-07  0.000357182 
         -50      18.9511  6.81338e-08 -3.55852e-07   0.00035716 
         -50      19.0847  6.70168e-08  -3.5035e-07  0.000357138 
         -50      19.2189  6.35009e-08 -3.44918e-07  0.000357115 
         -50      19.3535  5.78155e-08 -3.39721e-07  0.000357093 
         -50      19.4886  5.04231e-08 -3.34927e-07   0.00035707 
         -50      19.6242  4.20284e-08 -3.30729e-07  0.000357047 
         -50      19.7602  3.35323e-08 -3.27321e-07  0.000357025 
         -50      19.8968   2.5954e-08 -3.24879e-07  0.000357002 
         -50      20.0337  2.04025e-08 -3.23557e-07  0.000356978 
         -50      20.1712  1.79377e-08  -3.2346e-07  0.000356955 
         -50      20.3091  2.11973e-08 -3.23088e-07  0.000356931 
         -50      20.4475  3.16852e-08 -3.18482e-07  0.000356904 
         -50      20.5864  4.11572e-08 -3.14125e-07  0.000356878 
         -50      20.7257  4.84818e-08 -3.09135e-07  0.000356852 
         -50      20.8655  5.20313e-08 -3.02298e-07  0.000356826 
         -50      21.0058  4.95344e-08  -2.9201e-07  0.000356801 
         -50      21.1465  3.79633e-08 -2.76121e-07  0.000356776 
         -50      21.2877  1.42847e-08 -2.76953e-07  0.000356752 
         -50      21.4294  1.05909e-09 -2.92546e-07  0.000356725 
         -50      21.5716 -6.88779e-09 -2.93814e-07  0.000356699 
         -50      21.7142 -1.79785e-08 -2.85927e-07  0.000356673 
         -50      21.8573 -3.31293e-08 -2.71487e-07  0.000356647 
         -50      22.0008 -2.97863e-08 -2.57789e-07  0.000356621 
         -50      22.1449  7.31024e-09 -2.56849e-07  0.000356592 
         -50      22.2893  3.36693e-08 -2.56652e-07  0.000356563 
         -50      22.4344  4.96969e-08 -2.56857e-07  0.000356534 
         -50      22.5797  5.63748e-08   -2.571e-07  0.000356505 
         -50      22.7257  5.51944e-08 -2.57032e-07  0.000356476 
         -50      22.8721  4.79402e-08 -2.56348e-07  0.000356447 
         -50      23.0189  3.65784e-08 -2.54818e-07  0.000356418 
         -50      23.1663  2.30696e-08 -2.52299e-07  0.000356389 
         -50       23.314   9.3129e-09 -2.48754e-07   0.00035636 
         -50      23.4623 -3.04235e-09 -2.44246e-07  0.000356332 
         -50       23.611 -1.26088e-08 -2.38954e-07  0.000356303 
         -50      23.7602 -1.84101e-08  -2.3313e-07  0.000356274 
         -50        23.91 -1.98809e-08 -2.27113e-07  0.000356245 
         -50        24.06 -1.69413e-08 -2.21277e-07  0.000356216 
         -50      24.2107 -9.99176e-09 -2.15984e-07  0.000356187 
         -50      24.3617  7.07827e-11 -2.11558e-07  0.000356158 
         -50      24.5133  1.19253e-08 -2.08188e-07  0.000356129 
         -50      24.6653  2.38242e-08 -2.05885e-07  0.000356099 
         -50      24.8178  3.37477e-08 -2.04368e-07  0.000356069 
         -50      24.9708  3.94513e-08 -2.02974e-07  0.000356038 
         -50      25.1242  3.86548e-08 -2.00544e-07  0.000356006 
         -50      25.2781  2.92028e-08 -1.95277e-07  0.000355973 
         -50      25.4324  9.29909e-09  -1.8461e-07  0.000355938 
         -50      25.5873 -2.15505e-08  -1.8947e-07  0.000355907 
         -50      25.7426  -2.7882e-08 -1.92942e-07  0.000355875 
         -50      25.8984 -1.79531e-08 -1.93362e-07  0.000355842 
         -50      26.0546 -4.34555e-10 -1.91137e-07  0.000355809 
         -50      26.2114  1.79621e-08 -1.86807e-07  0.000355776 
         -50      26.3686  3.26984e-08  -1.8102e-07  0.000355742 
         -50      26.5262  4.14823e-08 -1.74499e-07  0.000355709 
         -50      26.6844  4.40102e-08  -1.6797e-07  0.000355675 
         -50      26.8429  4.13528e-08 -1.62145e-07  0.000355641 
         -50       27.002  3.50747e-08 -1.57619e-07  0.000355608 
         -50      27.1615  2.60019e-08 -1.54834e-07  0.000355574 
         -50      27.3216  1.25757e-08 -1.53967e-07  0.000355539 
         -50      27.4821  -1.1101e-08 -1.54855e-07  0.000355504 
         -50       27.643 -1.01916e-08 -1.52601e-07  0.000355469 
         -50      27.8044  6.01614e-09 -1.48924e-07  0.000355435 
         -50      27.9663  1.60448e-08 -1.46106e-07    0.0003554 
         -50      28.1287  2.12598e-08  -1.4391e-07  0.000355365 
         -50      28.2914  2.28375e-08 -1.42146e-07  0.000355329 
         -50      28.4548   2.1811e-08 -1.40652e-07  0.000355294 
         -50      28.6185  1.90642e-08 -1.39298e-07  0.000355258 
         -50      28.7828  1.53371e-08  -1.3798e-07  0.000355223 
         -50      28.9475  1.12455e-08 -1.36622e-07  0.000355187 
         -50      29.1126  7.28505e-09 -1.35168e-07   0.00035515 
         -50      29.2784  3.82874e-09  -1.3358e-07  0.000355114 
         -50      29.4444  1.15742e-09 -1.31843e-07  0.000355078 
         -50       29.611 -5.52277e-10 -1.29948e-07  0.000355041 
         -50       29.778 -1.20223e-09 -1.27905e-07  0.000355004 
         -50      29.9456 -7.73983e-10  -1.2573e-07  0.000354967 
         -50      30.1137  6.86331e-10 -1.23446e-07   0.00035493 
         -50      30.2821  3.07236e-09 -1.21086e-07  0.000354892 
         -50      30.4511  6.23654e-09 -1.18679e-07  0.000354855 
         -50      30.6204  9.98506e-09 -1.16262e-07  0.000354817 
         -50      30.7903  1.41071e-08 -1.13864e-07  0.000354779 
         -50      30.9606  1.83615e-08 -1.11521e-07  0.000354741 
         -50      31.1315  2.25119e-08 -1.09254e-07  0.000354703 
         -50      31.3028  2.63134e-08 -1.07088e-07  0.000354664 
         -50      31.4745  2.95335e-08  -1.0504e-07  0.000354626 
         -50      31.6468  3.19686e-08 -1.03115e-07  0.000354587 
         -50      31.8194  3.34372e-08 -1.01316e-07  0.000354548 
         -50      31.9926  3.38045e-08 -9.96311e-08  0.000354509 
         -50      32.1662  3.29832e-08 -9.80462e-08   0.00035447 
         -50      32.3404   3.0945e-08 -9.65323e-08   0.00035443 
         -50      32.5149  2.77352e-08 -9.50564e-08  0.000354391 
         -50        32.69  2.34694e-08 -9.35726e-08  0.000354351 
         -50      32.8655  1.83582e-08 -9.20309e-08  0.000354311 
         -50      33.0414  1.27111e-08 -9.03747e-08   0.00035427 
         -50       33.218  6.92923e-09 -8.85385e-08  0.000354229 
         -50      33.3948  1.54506e-09 -8.64589e-08  0.000354188 
         -50      33.5723 -2.80411e-09 -8.40646e-08  0.000354147 
         -50        33.75  -5.3363e-09 -8.12928e-08  0.000354105 
         -50      33.9284 -5.14199e-09 -7.80761e-08  0.000354063 
         -50      34.1073 -1.15892e-09 -7.43605e-08   0.00035402 
         -50      34.2865  7.81503e-09 -7.01045e-08  0.000353977 
         -50      34.4663  2.31638e-08  -6.5271e-08  0.000353932 
         -50      34.6465  4.63961e-08 -5.98566e-08  0.000353888 
         -50      34.8272  7.92542e-08 -5.38662e-08  0.000353842 
         -50      35.0083  8.74164e-08 -5.35231e-08  0.000353799 
         -50        35.19    6.682e-08 -5.62298e-08  0.000353757 
         -50      35.3721  3.67258e-08 -5.65792e-08  0.000353716 
         -50      35.5546 -2.08219e-09 -5.60047e-08  0.000353674 
         -50      35.7377  -1.3061e-08 -6.31215e-08  0.000353632 
         -50      35.9211 -1.57662e-08 -6.71208e-08  0.000353591 
         -50      36.1052 -1.24087e-08 -6.85328e-08  0.000353549 
         -50      36.2895 -4.91854e-09 -6.78045e-08  0.000353508 
         -50      36.4745  5.05069e-09 -6.53153e-08  0.000353467 
         -50      36.6598  1.60628e-08 -6.13838e-08  0.000353426 
         -50      36.8457  2.68094e-08 -5.64794e-08  0.000353384 
         -50      37.0321  3.47953e-08 -5.52079e-08   0.00035334 
         -50      37.2188  4.18436e-08 -5.44112e-08  0.000353295 
         -50      37.4062  4.72503e-08 -5.38933e-08  0.000353249 
         -50      37.5938  5.05698e-08 -5.35033e-08  0.000353204 
         -50      37.7821  5.16075e-08 -5.31264e-08  0.000353157 
         -50      37.9707  5.03601e-08 -5.26813e-08  0.000353111 
         -50      38.1599  4.69846e-08 -5.21131e-08  0.000353065 
         -50      38.3496  4.17657e-08 -5.13907e-08  0.000353018 
         -50      38.5396  3.50857e-08 -5.05018e-08  0.000352972 
         -50      38.7302  2.73703e-08 -4.94465e-08  0.000352925 
         -50      38.9211  1.90991e-08 -4.82385e-08  0.000352878 
         -50      39.1127  1.07314e-08 -4.68949e-08  0.000352832 
         -50      39.3046   2.7333e-09 -4.54409e-08  0.000352785 
         -50      39.4971 -4.49515e-09 -4.38986e-08  0.000352739 
         -50      39.6899 -1.05884e-08 -4.22938e-08  0.000352692 
         -50      39.8833  -1.5275e-08 -4.06442e-08  0.000352646 
         -50      40.0772 -1.83533e-08 -3.89672e-08    0.0003526 
         -50      40.2714 -1.97198e-08 -3.72747e-08  0.000352553 
         -50      40.4663 -1.93707e-08 -3.55688e-08  0.000352507 
         -50      40.6615 -1.73978e-08 -3.38511e-08   0.00035246 
         -50      40.8573 -1.39835e-08  -3.2113e-08  0.000352413 
         -50      41.0534 -9.40339e-09 -3.03469e-08  0.000352366 
         -50      41.2501  -3.9937e-09  -2.8538e-08  0.000352319 
         -50      41.4473  1.84361e-09 -2.66756e-08  0.000352272 
         -50      41.6448  7.67264e-09  -2.4753e-08  0.000352225 
         -50      41.8429  1.30669e-08 -2.27658e-08  0.000352177 
         -50      42.0414  1.76113e-08 -2.07282e-08   0.00035213 
         -50      42.2405  2.09736e-08 -1.86646e-08  0.000352081 
         -50      42.4399  2.29219e-08 -1.66299e-08  0.000352033 
         -50      42.6399  2.33969e-08 -1.47023e-08  0.000351985 
         -50      42.8404  2.25553e-08 -1.30034e-08  0.000351936 
         -50      43.0412  2.08444e-08 -1.17011e-08  0.000351887 
         -50      43.2426  1.90644e-08 -1.10167e-08  0.000351839 
         -50      43.4444  1.84563e-08 -1.12418e-08   0.00035179 
         -50      43.6467  2.07813e-08 -1.27465e-08  0.000351741 
         -50      43.8494  2.84124e-08 -1.59894e-08  0.000351693 
         -50      44.0527  4.44602e-08 -2.15428e-08  0.000351644 
         -50      44.2563   7.1749e-08 -2.96169e-08  0.000351597 
         -50      44.4606  5.97853e-08 -2.03258e-08  0.000351548 
         -50      44.6653  4.85363e-08 -1.35114e-08  0.000351498 
         -50      44.8704    3.836e-08  -8.8539e-09  0.000351448 
         -50       45.076   2.9664e-08 -6.08302e-09  0.000351398 
         -50       45.282  2.28848e-08 -4.97388e-09  0.000351348 
         -50      45.4886  1.83565e-08 -5.30128e-09  0.000351298 
         -50      45.6955  1.62721e-08  -6.8199e-09  0.000351248 
         -50       45.903  1.65708e-08 -9.23695e-09  0.000351198 
         -50      46.1111  1.88666e-08 -1.21768e-08  0.000351148 
         -50      46.3194  2.23452e-08 -1.51529e-08  0.000351098 
         -50      46.5283   2.5684e-08 -1.75462e-08  0.000351049 
         -50      46.7376  2.69358e-08 -1.85584e-08     0.000351 
         -50      46.9475  2.34404e-08 -1.71929e-08  0.000350951 
         -50      47.1577  1.17206e-08 -1.22184e-08  0.000350903 
         -50      47.3685 -3.25643e-10 -8.95896e-09  0.000350854 
         -50      47.5798  4.65415e-09 -1.31452e-08  0.000350801 
         -50      47.7914  1.03881e-08 -1.46895e-08  0.000350749 
         -50      48.0037  1.60819e-08   -1.421e-08  0.000350697 