Variables = x, y, u, v, p

Zone, I=6400, F=POINT
         -50            0            0            0      26.4457 
         -50     0.000471  9.23108e-07  1.01439e-09      26.4457 
         -50     0.001884  3.19793e-06  3.60858e-09      26.4457 
         -50     0.004239  5.61295e-06  6.66491e-09      26.4457 
         -50     0.007537  6.91385e-06  8.96878e-09      26.4457 
         -50     0.011776  6.51353e-06  9.81932e-09      26.4457 
         -50     0.016958  4.81836e-06  9.33425e-09      26.4457 
         -50     0.023081  2.90909e-06  8.21106e-09      26.4457 
         -50      0.03015  1.69299e-06   7.0243e-09      26.4457 
         -50     0.038157  1.09972e-06  5.49905e-09      26.4457 
         -50     0.047107  1.35076e-07  2.42651e-09      26.4457 
         -50     0.056999 -1.73136e-06    -3.32e-09      26.4457 
         -50     0.067837 -3.02965e-06 -1.14333e-08      26.4457 
         -50     0.079614 -3.54451e-06 -2.20388e-08      26.4457 
         -50     0.092332 -5.43079e-06 -3.79473e-08      26.4457 
         -50     0.105992 -6.38106e-06 -5.82206e-08      26.4457 
         -50       0.1206 -7.69582e-06 -8.43363e-08      26.4457 
         -50     0.136145 -8.91676e-06 -1.16674e-07      26.4457 
         -50     0.152631 -9.93535e-06 -1.55443e-07      26.4457 
         -50     0.170067 -1.08708e-05 -2.00493e-07      26.4457 
         -50     0.188438  -1.1855e-05 -2.51051e-07      26.4457 
         -50     0.207751 -1.28355e-05 -3.05731e-07      26.4457 
         -50     0.228006 -1.36053e-05 -3.62583e-07      26.4457 
         -50     0.249212 -1.44368e-05 -4.19725e-07      26.4457 
         -50     0.271351 -1.51405e-05 -4.72879e-07      26.4457 
         -50     0.294433 -1.58186e-05 -5.35265e-07      26.4457 
         -50     0.318456  -1.6478e-05  -6.0992e-07      26.4457 
         -50     0.343432 -1.71094e-05 -6.95983e-07      26.4457 
         -50     0.369339  -1.7712e-05 -7.89228e-07      26.4457 
         -50     0.396189 -1.82922e-05 -8.83311e-07      26.4456 
         -50     0.423981 -1.88576e-05 -9.71206e-07      26.4456 
         -50     0.452726 -1.94127e-05 -1.04738e-06      26.4456 
         -50     0.482403 -1.99541e-05 -1.11016e-06      26.4456 
         -50     0.513021 -2.04694e-05 -1.16453e-06      26.4456 
         -50     0.544594 -2.09392e-05 -1.22442e-06      26.4456 
         -50     0.577096 -2.13473e-05 -1.31418e-06      26.4456 
         -50     0.610541 -2.16996e-05 -1.47937e-06      26.4456 
         -50     0.644927 -2.19104e-05 -1.85365e-06      26.4455 
         -50      0.68027 -2.20434e-05 -2.13554e-06      26.4455 
         -50     0.716541 -2.20731e-05 -2.33907e-06      26.4455 
         -50     0.753754 -2.19804e-05  -2.4789e-06      26.4455 
         -50     0.791909 -2.17532e-05  -2.5694e-06      26.4454 
         -50     0.831022 -2.13853e-05 -2.62447e-06      26.4454 
         -50     0.871061 -2.08778e-05 -2.65699e-06      26.4454 
         -50     0.912043 -2.02365e-05 -2.67861e-06      26.4454 
         -50     0.953966 -1.94724e-05 -2.69922e-06      26.4453 
         -50     0.996849 -1.85993e-05 -2.72673e-06      26.4453 
         -50      1.04066 -1.76349e-05 -2.76664e-06      26.4452 
         -50      1.08541 -1.65964e-05 -2.82198e-06      26.4452 
         -50      1.13112 -1.55013e-05 -2.89312e-06      26.4452 
         -50      1.17775 -1.43675e-05 -2.97764e-06      26.4451 
         -50      1.22533 -1.32108e-05 -3.07068e-06      26.4451 
         -50      1.27384 -1.20472e-05 -3.16503e-06       26.445 
         -50      1.32333 -1.08945e-05 -3.25178e-06       26.445 
         -50      1.37373 -9.77753e-06 -3.32082e-06      26.4449 
         -50      1.42507 -8.73211e-06 -3.36208e-06      26.4448 
         -50      1.47736 -7.81556e-06 -3.36665e-06      26.4448 
         -50      1.53061 -6.91698e-06 -3.28289e-06      26.4447 
         -50      1.58478 -5.93888e-06 -3.21898e-06      26.4446 
         -50      1.63989   -5.097e-06 -3.25229e-06      26.4446 
         -50      1.69595 -4.39988e-06 -3.35368e-06      26.4445 
         -50      1.75297 -3.84407e-06  -3.4932e-06      26.4444 
         -50      1.81091 -3.41588e-06 -3.64062e-06      26.4443 
         -50      1.86979 -3.09138e-06 -3.76641e-06      26.4442 
         -50      1.92964 -2.83884e-06 -3.84245e-06      26.4441 
         -50       1.9904 -2.62084e-06 -3.84274e-06       26.444 
         -50      2.05211 -2.39582e-06  -3.7445e-06      26.4439 
         -50      2.11476 -2.12103e-06 -3.52889e-06      26.4438 
         -50      2.17838 -1.75488e-06 -3.18174e-06      26.4437 
         -50      2.24291 -1.26031e-06 -2.69495e-06      26.4436 
         -50      2.30839 -6.06776e-07 -2.06645e-06      26.4434 
         -50       2.3748  2.26504e-07 -1.30122e-06      26.4433 
         -50      2.44219  1.24852e-06  -4.1135e-07      26.4432 
         -50      2.51049   2.4526e-06  5.82315e-07       26.443 
         -50      2.57974  3.81714e-06  1.65235e-06      26.4429 
         -50      2.64993  5.30294e-06  2.76368e-06      26.4427 
         -50      2.72108  6.85427e-06   3.8752e-06      26.4425 
         -50      2.79315  8.39728e-06  4.93923e-06      26.4424 
         -50      2.86617   9.8464e-06  5.90603e-06      26.4422 
         -50      2.94012  1.11062e-05  6.72459e-06       26.442 
         -50      3.01505  1.20786e-05  7.34657e-06      26.4418 
         -50      3.09089   1.2671e-05  7.72966e-06      26.4416 
         -50      3.16767  1.28099e-05  7.84437e-06      26.4414 
         -50      3.24542  1.24553e-05  7.67932e-06      26.4412 
         -50      3.32409   1.1621e-05  7.24985e-06       26.441 
         -50       3.4037  1.03981e-05  6.60691e-06      26.4407 
         -50      3.48425  8.98508e-06   5.8485e-06      26.4405 
         -50      3.56577  7.72261e-06  5.13243e-06      26.4403 
         -50       3.6482  7.13824e-06  4.69278e-06        26.44 
         -50      3.73158  7.99306e-06  4.85576e-06      26.4397 
         -50       3.8159  7.96038e-06  4.63913e-06      26.4395 
         -50      3.90119  7.50546e-06  4.19718e-06      26.4392 
         -50       3.9874  7.05736e-06  4.23611e-06      26.4389 
         -50      4.07454  6.68533e-06  4.27955e-06      26.4386 
         -50      4.16263  6.39727e-06  4.22608e-06      26.4383 
         -50      4.25169  6.17487e-06  4.07853e-06       26.438 
         -50      4.34166   6.0083e-06  3.86717e-06      26.4376 
         -50      4.43258  5.89328e-06  3.63564e-06      26.4373 
         -50      4.52447  5.82905e-06  3.42876e-06       26.437 
         -50      4.61726  5.81611e-06  3.28218e-06      26.4366 
         -50        4.711  5.85405e-06  3.21371e-06      26.4362 
         -50      4.80569  5.94001e-06  3.21882e-06      26.4358 
         -50      4.90135  6.06746e-06  3.26984e-06      26.4354 
         -50      4.99791  6.22532e-06  3.32016e-06       26.435 
         -50      5.09542  6.39835e-06  3.31485e-06      26.4346 
         -50      5.19387  6.56787e-06  3.20835e-06      26.4342 
         -50       5.2933  6.71394e-06  2.99061e-06      26.4337 
         -50      5.39364   6.8183e-06  2.72381e-06      26.4333 
         -50      5.49491   6.8695e-06  2.58943e-06      26.4328 
         -50      5.59713  6.86907e-06  2.94931e-06      26.4323 
         -50      5.70033  6.58587e-06  3.24778e-06      26.4318 
         -50      5.80443  6.29889e-06  3.22681e-06      26.4313 
         -50      5.90948   6.1723e-06   3.3557e-06      26.4308 
         -50      6.01551  6.11316e-06  3.44561e-06      26.4303 
         -50      6.12244  6.07777e-06  3.44885e-06      26.4297 
         -50      6.23031   6.0588e-06  3.40076e-06      26.4292 
         -50      6.33912  6.07289e-06  3.35819e-06      26.4286 
         -50      6.44892  6.14832e-06  3.33579e-06       26.428 
         -50      6.55962  6.31325e-06  3.24045e-06      26.4274 
         -50      6.67126  6.58524e-06   2.8046e-06      26.4268 
         -50      6.78384  6.71025e-06  2.37685e-06      26.4261 
         -50      6.89741  6.64382e-06  2.35546e-06      26.4255 
         -50      7.01187  6.67536e-06  2.01029e-06      26.4248 
         -50      7.12728  6.75192e-06  1.55521e-06      26.4241 
         -50      7.24363  6.83983e-06  1.16213e-06      26.4234 
         -50      7.36097  6.92253e-06   9.4987e-07      26.4227 
         -50       7.4792  6.99707e-06  9.72533e-07       26.422 
         -50      7.59838  7.06954e-06  1.20617e-06      26.4212 
         -50      7.71854  7.14867e-06  1.53572e-06      26.4204 
         -50       7.8396  7.23763e-06   1.7398e-06      26.4197 
         -50      7.96161  7.32417e-06  1.47624e-06      26.4189 
         -50      8.08455  7.38251e-06  8.36199e-07       26.418 
         -50      8.20849  7.36363e-06  1.72437e-06      26.4172 
         -50      8.33332  7.23485e-06  2.14939e-06      26.4163 
         -50      8.45909  7.07623e-06  2.26369e-06      26.4154 
         -50       8.5858  6.95544e-06  2.18872e-06      26.4146 
         -50      8.71351  6.92406e-06  2.01386e-06      26.4136 
         -50       8.8421  7.01257e-06   1.8043e-06      26.4127 
         -50      8.97164   7.2239e-06  1.61873e-06      26.4117 
         -50      9.10212  7.52557e-06  1.53963e-06      26.4108 
         -50       9.2336  7.84016e-06  1.71713e-06      26.4098 
         -50      9.36596  7.99036e-06  2.20455e-06      26.4087 
         -50      9.49927  7.76511e-06  1.58396e-06      26.4077 
         -50      9.63352  7.65099e-06   1.2872e-06      26.4066 
         -50      9.76877  7.64173e-06  1.15941e-06      26.4056 
         -50       9.9049  7.71545e-06  1.09101e-06      26.4045 
         -50       10.042  7.84078e-06  1.01135e-06      26.4033 
         -50      10.1801  7.98283e-06  8.82788e-07      26.4022 
         -50       10.319  8.10807e-06  6.94659e-07       26.401 
         -50      10.4589   8.1892e-06  4.56789e-07      26.3998 
         -50      10.5998  8.20853e-06  1.93621e-07      26.3986 
         -50      10.7416  8.16052e-06 -6.18343e-08      26.3974 
         -50      10.8843   8.0533e-06 -2.73193e-07      26.3961 
         -50       11.028  7.90843e-06 -4.06609e-07      26.3949 
         -50      11.1726  7.75929e-06 -4.35106e-07      26.3935 
         -50      11.3182  7.64747e-06 -3.42821e-07      26.3922 
         -50      11.4647   7.6174e-06 -1.28666e-07      26.3909 
         -50      11.6122  7.70809e-06  1.91263e-07      26.3895 
         -50      11.7605   7.9428e-06  5.81971e-07      26.3881 
         -50      11.9099  8.31587e-06  9.89243e-07      26.3867 
         -50      12.0602  8.77541e-06   1.3398e-06      26.3852 
         -50      12.2114  9.20427e-06  1.54461e-06      26.3837 
         -50      12.3636  9.39561e-06  1.50211e-06      26.3822 
         -50      12.5167  9.02478e-06  1.10436e-06      26.3807 
         -50      12.6707  7.69285e-06  1.92707e-07      26.3791 
         -50      12.8257  7.56774e-06 -1.22159e-07      26.3776 
         -50      12.9817  8.67231e-06  1.09925e-06       26.376 
         -50      13.1386  9.08376e-06  1.73069e-06      26.3743 
         -50      13.2964   9.2649e-06  1.87067e-06      26.3727 
         -50      13.4551  9.30166e-06  1.72347e-06       26.371 
         -50      13.6149  9.26062e-06  1.44394e-06      26.3693 
         -50      13.7755    9.191e-06  1.14363e-06      26.3675 
         -50      13.9371  9.12664e-06  8.95692e-07      26.3658 
         -50      14.0996  9.08806e-06   7.4109e-07       26.364 
         -50      14.2631  9.08465e-06  6.94348e-07      26.3622 
         -50      14.4275  9.11677e-06   7.4938e-07      26.3603 
         -50      14.5928   9.1779e-06  8.85147e-07      26.3584 
         -50      14.7592  9.25681e-06  1.07152e-06      26.3565 
         -50      14.9264  9.33955e-06  1.27443e-06      26.3546 
         -50      15.0946  9.41167e-06  1.46159e-06      26.3526 
         -50      15.2637  9.46009e-06  1.60724e-06      26.3506 
         -50      15.4338  9.47506e-06  1.69684e-06      26.3486 
         -50      15.6048  9.45184e-06  1.73116e-06      26.3466 
         -50      15.7767  9.39243e-06  1.73018e-06      26.3445 
         -50      15.9496  9.30694e-06  1.73606e-06      26.3424 
         -50      16.1235  9.21486e-06  1.81559e-06      26.3402 
         -50      16.2982  9.14621e-06   2.0617e-06      26.3381 
         -50      16.4739  9.14205e-06  2.59434e-06      26.3359 
         -50      16.6506  9.25511e-06  3.56019e-06      26.3336 
         -50      16.8282  9.29862e-06  3.23441e-06      26.3314 
         -50      17.0068  9.28663e-06   2.7502e-06      26.3291 
         -50      17.1862  9.28643e-06  2.53533e-06      26.3268 
         -50      17.3667  9.30076e-06  2.47771e-06      26.3244 
         -50      17.5481  9.32342e-06  2.49721e-06       26.322 
         -50      17.7304  9.34312e-06   2.5402e-06      26.3196 
         -50      17.9136  9.34697e-06  2.57471e-06      26.3172 
         -50      18.0979  9.32352e-06  2.58553e-06      26.3147 
         -50       18.283  9.26522e-06  2.56992e-06      26.3122 
         -50      18.4691   9.1703e-06  2.53364e-06      26.3097 
         -50      18.6561  9.04395e-06  2.48756e-06      26.3071 
         -50      18.8441  8.89869e-06  2.44478e-06      26.3045 
         -50       19.033  8.75417e-06  2.41859e-06      26.3019 
         -50      19.2228  8.63537e-06  2.42096e-06      26.2992 
         -50      19.4136  8.57048e-06  2.46213e-06      26.2965 
         -50      19.6054  8.58719e-06  2.55102e-06      26.2938 
         -50       19.798  8.70784e-06  2.69662e-06       26.291 
         -50      19.9917  8.94321e-06  2.91086e-06      26.2882 
         -50      20.1862  9.28486e-06  3.21238e-06      26.2854 
         -50      20.3818  9.19539e-06  3.55303e-06      26.2825 
         -50      20.5782  8.80807e-06   3.8788e-06      26.2796 
         -50      20.7756  8.53292e-06   4.1841e-06      26.2767 
         -50       20.974  8.30811e-06  4.37463e-06      26.2738 
         -50      21.1732  8.09423e-06  4.30357e-06      26.2708 
         -50      21.3734  7.32103e-06  3.74015e-06      26.2678 
         -50      21.5745  7.95759e-06  3.57365e-06      26.2647 
         -50      21.7767  9.28785e-06  4.00722e-06      26.2616 
         -50      21.9797  1.02513e-05  4.97768e-06      26.2585 
         -50      22.1837  9.65663e-06  5.27539e-06      26.2554 
         -50      22.3886  9.29465e-06  5.24098e-06      26.2522 
         -50      22.5945  9.12321e-06  5.03949e-06       26.249 
         -50      22.8013  9.08346e-06  4.81013e-06      26.2457 
         -50      23.0091  9.11359e-06  4.65557e-06      26.2425 
         -50      23.2177  9.16033e-06  4.63575e-06      26.2391 
         -50      23.4274  9.18663e-06  4.76552e-06      26.2358 
         -50       23.638  9.17578e-06  5.01624e-06      26.2324 
         -50      23.8495  9.13146e-06  5.32306e-06       26.229 
         -50       24.062  9.07327e-06  5.59692e-06      26.2256 
         -50      24.2754  9.02744e-06  5.74218e-06      26.2221 
         -50      24.4897  9.01202e-06  5.68148e-06      26.2186 
         -50       24.705  9.01644e-06  5.38625e-06      26.2151 
         -50      24.9213  8.97475e-06  4.91492e-06      26.2115 
         -50      25.1385  8.73203e-06  4.45992e-06      26.2079 
         -50      25.3566  8.00363e-06  4.40105e-06      26.2043 
         -50      25.5756  7.78056e-06  4.31398e-06      26.2006 
         -50      25.7957  8.23486e-06  4.12464e-06      26.1969 
         -50      26.0166  8.56748e-06  4.15251e-06      26.1932 
         -50      26.2385  8.74516e-06  4.23919e-06      26.1894 
         -50      26.4613  8.73005e-06  4.31592e-06      26.1856 
         -50      26.6851   8.4884e-06  4.39415e-06      26.1818 
         -50      26.9098  8.03296e-06  4.53325e-06      26.1779 
         -50      27.1354  7.50067e-06  4.78384e-06       26.174 
         -50      27.3621  7.27048e-06  5.10411e-06      26.1701 
         -50      27.5896  7.81888e-06  5.30305e-06      26.1661 
         -50      27.8181   7.9242e-06  5.49637e-06      26.1622 
         -50      28.0475  7.98658e-06  5.64554e-06      26.1581 
         -50      28.2779  8.01747e-06  5.76258e-06      26.1541 
         -50      28.5092  8.02585e-06  5.85746e-06        26.15 
         -50      28.7414  8.01863e-06   5.9383e-06      26.1459 
         -50      28.9746  8.00093e-06  6.01121e-06      26.1418 
         -50      29.2088  7.97636e-06   6.0803e-06      26.1376 
         -50      29.4439  7.94742e-06  6.14772e-06      26.1334 
         -50      29.6799  7.91565e-06  6.21389e-06      26.1292 
         -50      29.9168  7.88198e-06  6.27751e-06      26.1249 
         -50      30.1548  7.84688e-06  6.33585e-06      26.1206 
         -50      30.3936  7.81063e-06  6.38486e-06      26.1163 
         -50      30.6334  7.77344e-06  6.41965e-06       26.112 
         -50      30.8742  7.73555e-06  6.43473e-06      26.1076 
         -50      31.1158  7.69743e-06  6.42446e-06      26.1032 
         -50      31.3584   7.6597e-06  6.38354e-06      26.0987 
         -50       31.602  7.62319e-06  6.30758e-06      26.0943 
         -50      31.8465  7.58891e-06  6.19367e-06      26.0898 
         -50      32.0919  7.55792e-06   6.0413e-06      26.0852 
         -50      32.3383  7.53116e-06  5.85287e-06      26.0807 
         -50      32.5856  7.50925e-06  5.63475e-06      26.0761 
         -50       32.834  7.49215e-06  5.39813e-06      26.0715 
         -50      33.0831  7.47888e-06   5.1605e-06      26.0669 
         -50      33.3333  7.46696e-06   4.9462e-06      26.0622 
         -50      33.5843  7.45198e-06  4.78818e-06      26.0575 
         -50      33.8364  7.42692e-06  4.72921e-06      26.0528 
         -50      34.0894   7.3815e-06  4.82354e-06      26.0481 
         -50      34.3433  7.30134e-06  5.13836e-06      26.0433 
         -50      34.5981  7.16703e-06  5.75572e-06      26.0385 
         -50       34.854  6.95303e-06  6.77492e-06      26.0337 
         -50      35.1107  6.87665e-06  6.77997e-06      26.0288 
         -50      35.3684  7.15808e-06  6.63716e-06      26.0239 
         -50      35.6271  7.43756e-06  6.65385e-06       26.019 
         -50      35.8867  7.23509e-06  6.57854e-06      26.0141 
         -50      36.1472  7.04385e-06  6.42826e-06      26.0092 
         -50      36.4086  6.90419e-06  6.22947e-06      26.0042 
         -50      36.6711  6.84594e-06  6.00173e-06      25.9992 
         -50      36.9344   6.8246e-06  5.74641e-06      25.9942 
         -50      37.1987  6.74552e-06  5.55576e-06      25.9891 
         -50      37.4639  6.67985e-06  5.46047e-06      25.9841 
         -50      37.7301  6.61906e-06  5.42588e-06       25.979 
         -50      37.9972  6.55813e-06  5.42484e-06      25.9739 
         -50      38.2652  6.49481e-06  5.43694e-06      25.9687 
         -50      38.5342   6.4291e-06  5.44778e-06      25.9636 
         -50      38.8042  6.36268e-06  5.44817e-06      25.9584 
         -50      39.0751  6.29841e-06  5.43342e-06      25.9532 
         -50      39.3469  6.23971e-06  5.40257e-06      25.9479 
         -50      39.6197  6.19017e-06   5.3576e-06      25.9427 
         -50      39.8934  6.15316e-06  5.30281e-06      25.9374 
         -50       40.168  6.13138e-06  5.24396e-06      25.9321 
         -50      40.4436  6.12658e-06  5.18764e-06      25.9268 
         -50      40.7202   6.1393e-06  5.14057e-06      25.9215 
         -50      40.9977  6.16864e-06  5.10898e-06      25.9161 
         -50      41.2761  6.21213e-06  5.09785e-06      25.9108 
         -50      41.5554  6.26571e-06  5.11041e-06      25.9054 
         -50      41.8358   6.3237e-06  5.14754e-06         25.9 
         -50       42.117  6.37886e-06  5.20716e-06      25.8945 
         -50      42.3992  6.42267e-06   5.2838e-06      25.8891 
         -50      42.6823  6.44555e-06  5.36813e-06      25.8836 
         -50      42.9664  6.43723e-06  5.44656e-06      25.8782 
         -50      43.2514   6.3873e-06  5.50074e-06      25.8727 
         -50      43.5373  6.28574e-06  5.50749e-06      25.8671 
         -50      43.8243  6.12363e-06  5.43838e-06      25.8616 
         -50      44.1121  5.89424e-06  5.25968e-06      25.8561 
         -50      44.4009  5.99805e-06  5.19618e-06      25.8505 
         -50      44.6906  6.26979e-06  5.20384e-06      25.8449 
         -50      44.9813  6.33401e-06  5.10541e-06      25.8393 
         -50      45.2729  6.24841e-06  4.96827e-06      25.8337 
         -50      45.5654  6.07193e-06  4.83628e-06      25.8281 
         -50      45.8589  5.86609e-06  4.72848e-06      25.8225 
         -50      46.1534  5.69676e-06  4.63759e-06      25.8168 
         -50      46.4488  5.63623e-06  4.52872e-06      25.8111 
         -50      46.7451  5.76483e-06   4.3377e-06      25.8055 
         -50      47.0423  6.17334e-06  3.96979e-06      25.7998 
         -50      47.3406  6.70444e-06  3.52328e-06      25.7941 
         -50      47.6397  6.23094e-06  3.90398e-06      25.7883 
         -50      47.9398   5.8818e-06  4.12776e-06      25.7826 
         -50      48.2409  5.63011e-06  4.23597e-06      25.7769 
         -50      48.5428  5.45366e-06  4.26364e-06      25.7711 
         -50      48.8457  5.33397e-06  4.23994e-06      25.7653 
         -50      49.1496  5.25629e-06   4.1882e-06      25.7596 
         -50      49.4545  5.20905e-06  4.12626e-06      25.7538 
         -50      49.7602  5.18353e-06  4.06694e-06       25.748 
         -50      50.0668  5.17325e-06  4.01834e-06      25.7422 
         -50      50.3744  5.17371e-06  3.98442e-06      25.7364 
         -50      50.6831  5.18181e-06  3.96553e-06      25.7305 
         -50      50.9926  5.19548e-06  3.95912e-06      25.7247 
         -50       51.303  5.21315e-06  3.96039e-06      25.7189 
         -50      51.6144  5.23334e-06  3.96314e-06       25.713 
         -50      51.9268  5.25415e-06  3.96066e-06      25.7072 
         -50        52.24  5.27276e-06   3.9467e-06      25.7013 
         -50      52.5542    5.285e-06  3.91656e-06      25.6954 
         -50      52.8694  5.28483e-06  3.86825e-06      25.6895 
         -50      53.1856  5.26385e-06  3.80373e-06      25.6837 
         -50      53.5026  5.21083e-06  3.73043e-06      25.6778 
         -50      53.8205  5.11116e-06  3.66254e-06      25.6719 
         -50      54.1396  4.94636e-06  3.62274e-06       25.666 
         -50      54.4594  4.69377e-06  3.64393e-06      25.6601 
         -50      54.7802  4.32578e-06  3.77101e-06      25.6541 
         -50      55.1019  4.44205e-06  3.75535e-06      25.6482 
         -50      55.4247  4.59166e-06  3.74478e-06      25.6423 
         -50      55.7483  4.68354e-06  3.76654e-06      25.6364 
         -50      56.0729  4.72988e-06  3.80719e-06      25.6305 
         -50      56.3984  4.74194e-06  3.85621e-06      25.6245 
         -50       56.725  4.72994e-06   3.9057e-06      25.6186 
         -50      57.0523  4.70298e-06     3.95e-06      25.6127 
         -50      57.3807  4.66882e-06  3.98549e-06      25.6067 
         -50      57.7099  4.63381e-06  4.01025e-06      25.6008 
         -50      58.0403  4.60282e-06  4.02378e-06      25.5949 
         -50      58.3714  4.57923e-06  4.02669e-06      25.5889 
         -50      58.7035  4.56483e-06  4.02049e-06       25.583 
         -50      59.0367  4.55988e-06  4.00722e-06       25.577 
         -50      59.3707  4.56315e-06  3.98929e-06      25.5711 
         -50      59.7056  4.57202e-06  3.96915e-06      25.5651 
         -50      60.0414  4.58258e-06  3.94906e-06      25.5592 
         -50      60.3784   4.5898e-06  3.93089e-06      25.5533 
         -50      60.7161  4.58773e-06  3.91584e-06      25.5473 
         -50      61.0548  4.56975e-06  3.90428e-06      25.5414 
         -50      61.3944  4.52889e-06   3.8955e-06      25.5355 
         -50      61.7351  4.45808e-06  3.88758e-06      25.5295 
         -50      62.0767  4.35073e-06  3.87718e-06      25.5236 
         -50      62.4191  4.20096e-06  3.85942e-06      25.5177 
         -50      62.7625  4.00426e-06  3.82773e-06      25.5117 
         -50       63.107  3.75787e-06   3.7737e-06      25.5058 
         -50      63.4523  3.46183e-06  3.68712e-06      25.4999 
         -50      63.7985  3.11912e-06  3.55574e-06       25.494 
         -50      64.1458  3.83918e-06  3.19491e-06      25.4881 
         -50      64.4939  4.31326e-06  2.89496e-06      25.4822 
         -50       64.843  4.56308e-06   2.6842e-06      25.4763 
         -50      65.1929  4.62853e-06  2.57841e-06      25.4704 
         -50       65.544  4.55245e-06  2.58147e-06      25.4645 
         -50      65.8959  4.38042e-06  2.68327e-06      25.4586 
         -50      66.2487  4.16004e-06  2.85761e-06      25.4527 
         -50      66.6025  3.94576e-06  3.06031e-06      25.4469 
         -50      66.9573  3.97199e-06  3.24536e-06       25.441 
         -50       67.313  3.99628e-06  3.38572e-06      25.4352 
         -50      67.6695  4.01955e-06  3.48545e-06      25.4293 
         -50      68.0271  4.04053e-06   3.5503e-06      25.4235 
         -50      68.3857  4.05596e-06  3.58749e-06      25.4177 
         -50      68.7451  4.06068e-06  3.60542e-06      25.4118 
         -50      69.1055  4.04791e-06  3.61353e-06       25.406 
         -50      69.4669  4.00924e-06  3.62214e-06      25.4002 
         -50      69.8291  3.91197e-06  3.60325e-06      25.3944 
         -50      70.1923  3.75765e-06  3.46447e-06      25.3886 
         -50      70.5564  3.66805e-06  3.35589e-06      25.3829 
         -50      70.9217  3.62865e-06  3.27329e-06      25.3771 
         -50      71.2877  3.62605e-06  3.21162e-06      25.3713 
         -50      71.6546  3.64808e-06  3.16521e-06      25.3656 
         -50      72.0225  3.68405e-06  3.12847e-06      25.3599 
         -50      72.3915  3.72494e-06  3.09618e-06      25.3542 
         -50      72.7613  3.76337e-06  3.06392e-06      25.3484 
         -50       73.132  3.79379e-06   3.0282e-06      25.3428 
         -50      73.5036   3.8124e-06  2.98676e-06      25.3371 
         -50      73.8764  3.81708e-06  2.93859e-06      25.3314 
         -50      74.2499  3.80736e-06  2.88404e-06      25.3257 
         -50      74.6244  3.78415e-06  2.82469e-06      25.3201 
         -50           75  3.74958e-06  2.76316e-06      25.3145 
         -25            0  7.31171e-21  4.12753e-24      25.3816 
         -25     0.000471  7.11607e-07  4.11933e-10      25.3816 
         -25     0.001884  2.48123e-06  1.55991e-09      25.3816 
         -25     0.004239  4.41294e-06  3.26316e-09      25.3816 
         -25     0.007537  5.57511e-06  5.45339e-09      25.3816 
         -25     0.011776  5.52174e-06   8.3867e-09      25.3816 
         -25     0.016958  4.53321e-06  1.27411e-08      25.3816 
         -25     0.023081  3.38302e-06  1.94974e-08      25.3816 
         -25      0.03015   2.7177e-06  2.96605e-08      25.3816 
         -25     0.038157  2.46751e-06   4.3928e-08      25.3816 
         -25     0.047107  1.88769e-06  6.26645e-08      25.3816 
         -25     0.056999   5.7642e-07  8.62185e-08      25.3816 
         -25     0.067837 -3.97235e-07  1.15414e-07      25.3816 
         -25     0.079614 -8.79218e-07  1.50766e-07      25.3816 
         -25     0.092332 -2.44978e-06  1.91676e-07      25.3816 
         -25     0.105992 -3.41203e-06  2.38783e-07      25.3816 
         -25       0.1206 -4.70994e-06  2.91573e-07      25.3816 
         -25     0.136145 -5.99414e-06   3.4969e-07      25.3816 
         -25     0.152631 -7.16933e-06  4.12668e-07      25.3816 
         -25     0.170067  -8.3056e-06   4.7989e-07      25.3816 
         -25     0.188438 -9.48116e-06  5.50481e-07      25.3816 
         -25     0.207751   -1.064e-05   6.2354e-07      25.3815 
         -25     0.228006 -1.16142e-05  6.98183e-07      25.3815 
         -25     0.249212 -1.25895e-05  7.73923e-07      25.3815 
         -25     0.271351 -1.34168e-05  8.49521e-07      25.3815 
         -25     0.294433 -1.41626e-05  9.24349e-07      25.3815 
         -25     0.318456 -1.48283e-05  9.98373e-07      25.3815 
         -25     0.343432 -1.54035e-05  1.07229e-06      25.3815 
         -25     0.369339 -1.58845e-05   1.1472e-06      25.3815 
         -25     0.396189 -1.62735e-05  1.22449e-06      25.3815 
         -25     0.423981 -1.65751e-05  1.30529e-06      25.3815 
         -25     0.452726 -1.67935e-05  1.39015e-06      25.3815 
         -25     0.482403 -1.69294e-05  1.47854e-06      25.3815 
         -25     0.513021 -1.69788e-05  1.56885e-06      25.3815 
         -25     0.544594 -1.69342e-05  1.65855e-06      25.3815 
         -25     0.577096 -1.67907e-05  1.74485e-06      25.3815 
         -25     0.610541 -1.65597e-05  1.82654e-06      25.3815 
         -25     0.644927  -1.6231e-05  1.90895e-06      25.3815 
         -25      0.68027 -1.57968e-05  2.00014e-06      25.3815 
         -25     0.716541 -1.52655e-05  2.09685e-06      25.3815 
         -25     0.753754 -1.46472e-05  2.19658e-06      25.3815 
         -25     0.791909 -1.39545e-05   2.2974e-06      25.3815 
         -25     0.831022 -1.32017e-05  2.39795e-06      25.3814 
         -25     0.871061 -1.24052e-05  2.49724e-06      25.3814 
         -25     0.912043 -1.15812e-05  2.59473e-06      25.3814 
         -25     0.953966 -1.07464e-05  2.69004e-06      25.3814 
         -25     0.996849 -9.91629e-06  2.78287e-06      25.3814 
         -25      1.04066 -9.10617e-06  2.87272e-06      25.3814 
         -25      1.08541 -8.32789e-06    2.959e-06      25.3814 
         -25      1.13112 -7.59051e-06  3.04086e-06      25.3814 
         -25      1.17775 -6.90046e-06  3.11723e-06      25.3813 
         -25      1.22533 -6.25952e-06  3.18717e-06      25.3813 
         -25      1.27384 -5.66588e-06  3.25027e-06      25.3813 