Variables = x, y, u, v, p

Zone, I=20800, F=POINT
         -50            0            0            0  -0.00022645 
         -50     0.000234 -3.79283e-08 -4.44789e-11  -0.00022645 
         -50     0.000939 -1.51697e-07 -1.78708e-10  -0.00022645 
         -50     0.002113 -3.39486e-07 -4.03588e-10  -0.00022645 
         -50     0.003759 -5.99313e-07 -7.23826e-10  -0.00022645 
         -50     0.005872 -9.27019e-07 -1.14816e-09  -0.00022645 
         -50     0.008457 -1.31914e-06  -1.6963e-09  -0.00022645 
         -50      0.01151 -1.77003e-06 -2.39893e-09  -0.00022645 
         -50     0.015036 -2.27458e-06 -3.30548e-09  -0.00022645 
         -50     0.019031 -2.82563e-06 -4.48389e-09  -0.00022645 
         -50     0.023493 -3.41561e-06 -6.02668e-09  -0.00022645 
         -50     0.028429 -4.03743e-06 -8.05835e-09  -0.00022645 
         -50     0.033831 -4.68141e-06 -1.07307e-08  -0.00022645 
         -50     0.039706 -5.33921e-06 -1.42402e-08  -0.00022645 
         -50     0.046047 -6.00055e-06 -1.88188e-08  -0.00022645 
         -50     0.052863 -6.65678e-06 -2.47562e-08  -0.00022645 
         -50      0.06015 -7.29814e-06 -3.23783e-08 -0.000226451 
         -50       0.0679 -7.91516e-06 -4.20347e-08 -0.000226451 
         -50     0.076126 -8.50052e-06 -5.40968e-08 -0.000226451 
         -50     0.084816 -9.04491e-06 -6.88434e-08 -0.000226451 
         -50     0.093982 -9.54269e-06 -8.69247e-08 -0.000226452 
         -50     0.103611 -9.98701e-06 -1.08617e-07 -0.000226452 
         -50     0.113718 -1.03739e-05 -1.34113e-07 -0.000226453 
         -50     0.124286 -1.06995e-05 -1.63533e-07 -0.000226453 
         -50     0.135333 -1.09623e-05 -1.97029e-07 -0.000226454 
         -50      0.14685 -1.11615e-05 -2.34505e-07 -0.000226454 
         -50     0.158827 -1.12977e-05 -2.75562e-07 -0.000226455 
         -50     0.171284 -1.13733e-05 -3.19482e-07 -0.000226455 
         -50     0.184201 -1.13915e-05 -3.64884e-07 -0.000226456 
         -50     0.197599 -1.13568e-05 -4.09973e-07 -0.000226457 
         -50     0.211455 -1.12746e-05 -4.52357e-07 -0.000226458 
         -50     0.225792 -1.11506e-05 -4.89667e-07 -0.000226459 
         -50       0.2406 -1.09913e-05 -5.19987e-07  -0.00022646 
         -50     0.255865 -1.08026e-05 -5.40767e-07 -0.000226462 
         -50     0.271613 -1.05932e-05  -5.4605e-07 -0.000226464 
         -50     0.287818 -1.03688e-05 -5.42819e-07 -0.000226466 
         -50     0.304506 -1.01314e-05 -5.38544e-07 -0.000226468 
         -50      0.32165 -9.88451e-06  -5.4096e-07 -0.000226471 
         -50     0.339278 -9.63156e-06  -5.5768e-07 -0.000226474 
         -50     0.357377 -9.37741e-06 -5.95765e-07 -0.000226477 
         -50      0.37593 -9.12738e-06 -6.61163e-07  -0.00022648 
         -50     0.394968 -8.88639e-06 -7.58462e-07 -0.000226484 
         -50     0.414461 -8.66009e-06 -8.89971e-07 -0.000226487 
         -50      0.43444 -8.45305e-06 -1.05591e-06  -0.00022649 
         -50     0.454872 -8.26979e-06 -1.25321e-06 -0.000226491 
         -50     0.475791 -8.11316e-06 -1.47643e-06 -0.000226492 
         -50     0.497163 -7.98519e-06  -1.7165e-06 -0.000226491 
         -50     0.519021 -7.88586e-06 -1.96251e-06 -0.000226489 
         -50      0.54135 -7.81372e-06 -2.20124e-06 -0.000226486 
         -50     0.564131 -7.76556e-06 -2.41906e-06 -0.000226482 
         -50       0.5874 -7.73668e-06 -2.60457e-06 -0.000226477 
         -50     0.611121 -7.71642e-06 -2.75772e-06 -0.000226473 
         -50      0.63533  -7.6535e-06 -2.95291e-06 -0.000226459 
         -50      0.65999  -7.5979e-06 -3.11889e-06 -0.000226449 
         -50     0.685139 -7.54383e-06 -3.25356e-06  -0.00022644 
         -50     0.710759 -7.48642e-06 -3.35665e-06 -0.000226433 
         -50     0.736828 -7.42159e-06 -3.42997e-06 -0.000226429 
         -50     0.763387 -7.34595e-06 -3.47737e-06 -0.000226426 
         -50     0.790396 -7.25714e-06 -3.50412e-06 -0.000226424 
         -50     0.817896 -7.15334e-06 -3.51682e-06 -0.000226423 
         -50     0.845843 -7.03375e-06  -3.5229e-06 -0.000226423 
         -50     0.874283 -6.89791e-06 -3.53024e-06 -0.000226423 
         -50      0.90317  -6.7463e-06 -3.54663e-06 -0.000226423 
         -50     0.932551 -6.57943e-06 -3.57931e-06 -0.000226423 
         -50     0.962401 -6.39848e-06 -3.63439e-06 -0.000226421 
         -50     0.992697 -6.20487e-06 -3.71628e-06 -0.000226419 
         -50      1.02349 -5.99956e-06 -3.82749e-06 -0.000226415 
         -50      1.05472 -5.78409e-06 -3.96768e-06 -0.000226409 
         -50      1.08645 -5.55905e-06 -4.13415e-06 -0.000226401 
         -50      1.11863  -5.3254e-06 -4.32071e-06 -0.000226391 
         -50       1.1513 -5.08292e-06 -4.51886e-06 -0.000226378 
         -50      1.18444 -4.83147e-06 -4.71708e-06 -0.000226363 
         -50      1.21802 -4.57049e-06 -4.90196e-06 -0.000226345 
         -50      1.25211 -4.29842e-06 -5.05967e-06 -0.000226326 
         -50      1.28663 -4.01444e-06 -5.17662e-06 -0.000226305 
         -50      1.32165 -3.71699e-06 -5.24251e-06 -0.000226282 
         -50      1.35712 -3.40612e-06 -5.25257e-06  -0.00022626 
         -50      1.39308 -3.08224e-06 -5.21158e-06 -0.000226238 
         -50      1.42951  -2.7487e-06 -5.13843e-06 -0.000226218 
         -50      1.46638 -2.41224e-06 -5.07198e-06 -0.000226202 
         -50      1.50375 -2.08357e-06 -5.07787e-06 -0.000226193 
         -50      1.54156 -1.73492e-06 -5.16661e-06 -0.000226169 
         -50      1.57987 -1.39968e-06 -5.23845e-06 -0.000226143 
         -50      1.61863 -1.08128e-06 -5.29373e-06 -0.000226117 
         -50      1.65788  -7.7914e-07 -5.33436e-06  -0.00022609 
         -50      1.69757 -4.93645e-07 -5.36196e-06 -0.000226063 
         -50      1.73776 -2.24128e-07 -5.37814e-06 -0.000226035 
         -50      1.77842  2.94389e-08 -5.38429e-06 -0.000226007 
         -50      1.81952  2.67181e-07 -5.38168e-06 -0.000225978 
         -50      1.86113   4.8987e-07 -5.37145e-06 -0.000225949 
         -50      1.90316  6.97569e-07  -5.3546e-06 -0.000225919 
         -50      1.94571  8.91086e-07 -5.33196e-06 -0.000225889 
         -50      1.98869  1.07062e-06 -5.30428e-06 -0.000225859 
         -50      2.03217    1.237e-06 -5.27209e-06 -0.000225828 
         -50      2.07612  1.39066e-06 -5.23589e-06 -0.000225797 
         -50      2.12051  1.53205e-06 -5.19607e-06 -0.000225765 
         -50       2.1654    1.662e-06 -5.15282e-06 -0.000225734 
         -50      2.21073  1.78089e-06 -5.10637e-06 -0.000225702 
         -50      2.25656  1.88949e-06 -5.05674e-06 -0.000225669 
         -50      2.30283  1.98819e-06 -5.00405e-06 -0.000225637 
         -50       2.3496  2.07768e-06  -4.9482e-06 -0.000225604 
         -50      2.39685  2.15839e-06  -4.8892e-06 -0.000225571 
         -50      2.44452  2.23072e-06 -4.82707e-06 -0.000225538 
         -50      2.49271  2.29521e-06 -4.76167e-06 -0.000225505 
         -50      2.54132  2.35211e-06 -4.69311e-06 -0.000225472 
         -50      2.59044  2.40182e-06  -4.6213e-06 -0.000225439 
         -50         2.64  2.44451e-06 -4.54645e-06 -0.000225406 
         -50      2.69006  2.48042e-06 -4.46863e-06 -0.000225373 
         -50      2.74056  2.50963e-06 -4.38818e-06  -0.00022534 
         -50      2.79156  2.53226e-06 -4.30533e-06 -0.000225307 
         -50      2.84304   2.5483e-06 -4.22056e-06 -0.000225274 
         -50      2.89494  2.55773e-06 -4.13448e-06 -0.000225242 
         -50      2.94735  2.56053e-06 -4.04755e-06  -0.00022521 
         -50       3.0002  2.55664e-06  -3.9606e-06 -0.000225178 
         -50      3.05355  2.54605e-06 -3.87424e-06 -0.000225147 
         -50      3.10733  2.52879e-06 -3.78937e-06 -0.000225115 
         -50      3.16163  2.50493e-06 -3.70661e-06 -0.000225085 
         -50      3.21639  2.47474e-06 -3.62675e-06 -0.000225054 
         -50      3.27158  2.43864e-06 -3.55041e-06 -0.000225024 
         -50      3.32729  2.39724e-06 -3.47785e-06 -0.000224994 
         -50      3.38342  2.35153e-06 -3.40928e-06 -0.000224965 
         -50      3.44007  2.30278e-06 -3.34428e-06 -0.000224936 
         -50      3.49714  2.25286e-06 -3.28211e-06 -0.000224907 
         -50      3.55472  2.20407e-06 -3.22116e-06 -0.000224878 
         -50      3.61273  2.15952e-06 -3.15916e-06  -0.00022485 
         -50      3.67125    2.123e-06 -3.09259e-06 -0.000224821 
         -50      3.73025  2.09939e-06 -3.01678e-06 -0.000224793 
         -50      3.78967  2.06477e-06  -2.9405e-06 -0.000224765 
         -50      3.84961  2.02058e-06 -2.87369e-06 -0.000224737 
         -50      3.90996  1.97792e-06 -2.81252e-06  -0.00022471 
         -50      3.97084  1.93887e-06 -2.75069e-06 -0.000224684 
         -50      4.03214  1.90136e-06 -2.68965e-06 -0.000224658 
         -50      4.09395  1.86464e-06 -2.62959e-06 -0.000224632 
         -50      4.15624   1.8285e-06 -2.57033e-06 -0.000224606 
         -50      4.21895  1.79282e-06 -2.51179e-06  -0.00022458 
         -50      4.28217  1.75747e-06 -2.45379e-06 -0.000224555 
         -50      4.34582  1.72248e-06 -2.39642e-06  -0.00022453 
         -50      4.40998  1.68783e-06 -2.33961e-06 -0.000224506 
         -50      4.47457  1.65362e-06  -2.2835e-06 -0.000224481 
         -50      4.53968  1.61986e-06 -2.22807e-06 -0.000224457 
         -50      4.60525  1.58667e-06 -2.17344e-06 -0.000224433 
         -50      4.67125  1.55413e-06 -2.11972e-06  -0.00022441 
         -50      4.73777  1.52225e-06 -2.06686e-06 -0.000224387 
         -50       4.8047  1.49112e-06 -2.01498e-06 -0.000224364 
         -50      4.87216  1.46068e-06   -1.964e-06 -0.000224341 
         -50      4.94003  1.43097e-06 -1.91396e-06 -0.000224319 
         -50      5.00843  1.40187e-06 -1.86476e-06 -0.000224297 
         -50      5.07724  1.37336e-06 -1.81639e-06 -0.000224275 
         -50      5.14658  1.34528e-06 -1.76871e-06 -0.000224254 
         -50      5.21639  1.31757e-06 -1.72171e-06 -0.000224232 
         -50      5.28661  1.29015e-06  -1.6754e-06 -0.000224211 
         -50      5.35736  1.26294e-06 -1.62977e-06  -0.00022419 
         -50      5.42852    1.236e-06 -1.58502e-06  -0.00022417 
         -50      5.50021  1.20941e-06 -1.54139e-06  -0.00022415 
         -50      5.57231  1.18351e-06 -1.49944e-06 -0.000224129 
         -50      5.64493  1.15874e-06 -1.45986e-06  -0.00022411 
         -50      5.71803  1.13254e-06 -1.41549e-06 -0.000224091 
         -50      5.79154  1.10765e-06 -1.37484e-06 -0.000224072 
         -50      5.86558  1.08366e-06 -1.33616e-06 -0.000224053 
         -50      5.94003  1.06031e-06  -1.2985e-06 -0.000224034 
         -50      6.01501  1.03733e-06 -1.26131e-06 -0.000224015 
         -50       6.0904  1.01461e-06 -1.22454e-06 -0.000223997 
         -50      6.16632   9.9208e-07 -1.18824e-06 -0.000223978 
         -50      6.24271  9.69815e-07 -1.15269e-06  -0.00022396 
         -50       6.3195  9.47959e-07 -1.11814e-06 -0.000223943 
         -50      6.39683   9.2663e-07 -1.08471e-06 -0.000223925 
         -50      6.47457  9.05989e-07  -1.0525e-06 -0.000223908 
         -50      6.55284  8.86016e-07 -1.02136e-06  -0.00022389 
         -50      6.63152  8.66538e-07 -9.91118e-07 -0.000223873 
         -50      6.71073  8.46968e-07  -9.6141e-07 -0.000223856 
         -50      6.79034  8.28038e-07 -9.31252e-07 -0.000223839 
         -50      6.87049  8.08867e-07 -9.02221e-07 -0.000223823 
         -50      6.95111  7.89115e-07  -8.7454e-07 -0.000223807 
         -50      7.03214  7.69067e-07  -8.4792e-07 -0.000223792 
         -50       7.1137  7.48918e-07 -8.22097e-07 -0.000223776 
         -50      7.19566   7.2888e-07 -7.96962e-07  -0.00022376 
         -50      7.27816  7.09062e-07 -7.72387e-07 -0.000223744 
         -50      7.36106  6.89601e-07 -7.48364e-07 -0.000223729 
         -50      7.44451  6.70535e-07 -7.24842e-07 -0.000223714 
         -50      7.52842  6.51918e-07 -7.01843e-07 -0.000223698 
         -50      7.61273  6.33783e-07 -6.79395e-07 -0.000223683 
         -50      7.69758  6.16097e-07 -6.57472e-07 -0.000223669 
         -50      7.78283  5.98875e-07 -6.36104e-07 -0.000223654 
         -50      7.86862  5.82071e-07 -6.15233e-07  -0.00022364 
         -50      7.95481  5.65697e-07 -5.94847e-07 -0.000223626 
         -50      8.04155  5.49727e-07 -5.74841e-07 -0.000223613 
         -50      8.12868   5.3269e-07 -5.56207e-07 -0.000223598 
         -50      8.21635  5.16528e-07 -5.37638e-07 -0.000223583 
         -50      8.30449  5.01488e-07 -5.19138e-07 -0.000223568 
         -50      8.39303  4.87284e-07 -5.01036e-07 -0.000223554 
         -50      8.48211  4.73658e-07 -4.83541e-07 -0.000223541 
         -50      8.57159  4.60456e-07 -4.66826e-07 -0.000223527 
         -50      8.66161  4.47544e-07 -4.50917e-07 -0.000223514 
         -50      8.75203  4.34894e-07 -4.35806e-07 -0.000223501 
         -50      8.84299  4.22488e-07 -4.21361e-07 -0.000223488 
         -50      8.93443  4.10377e-07 -4.07435e-07 -0.000223475 
         -50      9.02626  3.98638e-07 -3.93866e-07 -0.000223462 
         -50      9.11863  3.87312e-07 -3.80494e-07 -0.000223449 
         -50      9.21139  3.76446e-07 -3.67288e-07 -0.000223435 
         -50      9.30471  3.65973e-07 -3.54346e-07 -0.000223422 
         -50      9.39841  3.55564e-07 -3.42614e-07 -0.000223409 
         -50      9.49267  3.44359e-07 -3.31175e-07 -0.000223397 
         -50      9.58739  3.32703e-07 -3.19423e-07 -0.000223385 
         -50      9.68251  3.20982e-07 -3.07657e-07 -0.000223373 
         -50      9.77817  3.09452e-07 -2.96081e-07  -0.00022336 
         -50      9.87422  2.98314e-07 -2.84869e-07 -0.000223348 
         -50      9.97083  2.87657e-07 -2.74108e-07 -0.000223335 
         -50      10.0678  2.77544e-07  -2.6387e-07 -0.000223323 
         -50      10.1654  2.67954e-07 -2.54155e-07  -0.00022331 
         -50      10.2633  2.58859e-07 -2.44961e-07 -0.000223298 
         -50      10.3618  2.50176e-07 -2.36231e-07 -0.000223285 
         -50      10.4607   2.4183e-07 -2.27912e-07 -0.000223273 
         -50      10.5601  2.33738e-07 -2.19939e-07  -0.00022326 
         -50        10.66  2.25803e-07 -2.12219e-07 -0.000223248 
         -50      10.7603  2.17968e-07  -2.0469e-07 -0.000223236 
         -50      10.8611  2.10164e-07 -1.97267e-07 -0.000223224 
         -50      10.9623  2.02376e-07 -1.89903e-07 -0.000223212 
         -50      11.0641  1.94588e-07  -1.8254e-07   -0.0002232 
         -50      11.1663   1.8683e-07 -1.75157e-07 -0.000223188 
         -50       11.269  1.79163e-07 -1.67755e-07 -0.000223176 
         -50      11.3721  1.71649e-07  -1.6034e-07 -0.000223164 
         -50      11.4757  1.64398e-07 -1.52963e-07 -0.000223153 
         -50      11.5798  1.57503e-07 -1.45678e-07 -0.000223141 
         -50      11.6844  1.51083e-07  -1.3858e-07 -0.000223129 
         -50      11.7894  1.45217e-07 -1.31763e-07 -0.000223118 
         -50       11.895  1.39969e-07 -1.25348e-07 -0.000223106 
         -50      12.0009  1.35346e-07 -1.19467e-07 -0.000223094 
         -50      12.1073  1.31265e-07 -1.14234e-07 -0.000223081 
         -50      12.2142  1.27545e-07 -1.09773e-07 -0.000223069 
         -50      12.3216  1.23848e-07 -1.06172e-07 -0.000223056 
         -50      12.4294  1.19667e-07 -1.03494e-07 -0.000223043 
         -50      12.5378  1.14249e-07 -1.01743e-07  -0.00022303 
         -50      12.6465  1.06958e-07 -9.89807e-08 -0.000223017 
         -50      12.7558  9.75714e-08 -9.15668e-08 -0.000223007 
         -50      12.8656  9.54533e-08 -8.49734e-08 -0.000222994 
         -50      12.9757  9.28819e-08 -7.81045e-08 -0.000222981 
         -50      13.0864  8.97012e-08 -7.46789e-08  -0.00022297 
         -50      13.1975   8.5574e-08 -7.16583e-08 -0.000222958 
         -50      13.3092  8.08755e-08 -6.88517e-08 -0.000222947 
         -50      13.4212   7.5928e-08 -6.61216e-08 -0.000222935 
         -50      13.5338  7.09761e-08 -6.33618e-08 -0.000222923 
         -50      13.6468  6.62182e-08  -6.0508e-08 -0.000222911 
         -50      13.7603  6.17984e-08 -5.75276e-08 -0.000222899 
         -50      13.8743  5.78013e-08  -5.4407e-08 -0.000222887 
         -50      13.9886  5.42807e-08 -5.11649e-08 -0.000222874 
         -50      14.1036  5.12396e-08 -4.78278e-08 -0.000222861 
         -50      14.2189  4.86576e-08 -4.44457e-08 -0.000222849 
         -50      14.3348   4.6477e-08 -4.10677e-08 -0.000222836 
         -50       14.451  4.46251e-08 -3.77586e-08 -0.000222823 
         -50      14.5678  4.30056e-08 -3.45737e-08  -0.00022281 
         -50      14.6851  4.15154e-08 -3.15739e-08 -0.000222797 
         -50      14.8028  4.00462e-08 -2.88131e-08 -0.000222784 
         -50       14.921  3.84868e-08 -2.63292e-08 -0.000222771 
         -50      15.0396  3.67384e-08 -2.41557e-08 -0.000222758 
         -50      15.1588  3.47104e-08  -2.2303e-08 -0.000222745 
         -50      15.2783  3.23382e-08 -2.07702e-08 -0.000222732 
         -50      15.3984  2.95764e-08 -1.95304e-08 -0.000222719 
         -50       15.519  2.64187e-08 -1.85386e-08 -0.000222706 
         -50        15.64  2.28991e-08 -1.77258e-08 -0.000222692 
         -50      15.7615  1.90897e-08 -1.69968e-08 -0.000222679 
         -50      15.8834   1.5127e-08 -1.62349e-08 -0.000222665 
         -50      16.0058  1.11948e-08  -1.5296e-08 -0.000222652 
         -50      16.1286  7.55545e-09  -1.4016e-08 -0.000222638 
         -50       16.252  4.53239e-09 -1.22048e-08 -0.000222624 
         -50      16.3759  2.53753e-09 -9.65539e-09  -0.00022261 
         -50      16.5002  2.06523e-09 -6.14615e-09 -0.000222596 
         -50       16.625  3.70134e-09 -1.43366e-09 -0.000222581 
         -50      16.7501  4.57721e-09  3.11069e-10 -0.000222567 
         -50      16.8759   2.8346e-09 -2.50663e-09 -0.000222553 
         -50       17.002  1.82259e-09 -4.86521e-09 -0.000222539 
         -50      17.1287  1.23228e-09 -6.70558e-09 -0.000222525 
         -50      17.2557   8.2811e-10 -8.00127e-09 -0.000222511 
         -50      17.3834  4.35323e-10   -8.763e-09 -0.000222496 
         -50      17.5115 -6.50825e-11  -9.0238e-09 -0.000222481 
         -50      17.6399 -7.44652e-10 -8.83759e-09 -0.000222467 
         -50       17.769 -1.63686e-09 -8.27096e-09 -0.000222452 
         -50      17.8984 -2.74015e-09 -7.39951e-09 -0.000222437 
         -50      18.0284 -4.03047e-09 -6.29948e-09 -0.000222422 
         -50      18.1587 -5.46095e-09  -5.0486e-09 -0.000222407 
         -50      18.2896 -6.97607e-09  -3.7155e-09 -0.000222392 
         -50       18.421 -8.50971e-09 -2.36316e-09 -0.000222376 
         -50      18.5528 -9.99376e-09 -1.04354e-09 -0.000222361 
         -50      18.6851 -1.13665e-08  2.07325e-10 -0.000222346 
         -50      18.8178 -1.25684e-08  1.36292e-09  -0.00022233 
         -50      18.9511 -1.35547e-08  2.41412e-09 -0.000222314 
         -50      19.0847   -1.429e-08  3.36069e-09 -0.000222299 
         -50      19.2189 -1.47568e-08  4.21595e-09 -0.000222282 
         -50      19.3535 -1.49519e-08  4.99738e-09 -0.000222266 
         -50      19.4886 -1.48897e-08  5.72773e-09  -0.00022225 
         -50      19.6242 -1.45998e-08   6.4247e-09 -0.000222233 
         -50      19.7602 -1.41265e-08  7.09585e-09 -0.000222216 
         -50      19.8968  -1.3524e-08  7.73142e-09 -0.000222199 
         -50      20.0337 -1.28552e-08  8.29062e-09 -0.000222182 
         -50      20.1712 -1.21826e-08  8.69373e-09 -0.000222165 
         -50      20.3091 -1.25374e-08   9.5332e-09 -0.000222148 
         -50      20.4475  -1.5679e-08  1.17034e-08 -0.000222132 
         -50      20.5864 -1.78807e-08  1.26044e-08 -0.000222116 
         -50      20.7257 -1.89857e-08  1.26984e-08 -0.000222099 
         -50      20.8655 -1.87725e-08  1.24941e-08 -0.000222082 
         -50      21.0058  -1.6926e-08  1.25395e-08 -0.000222064 
         -50      21.1465 -1.30068e-08   1.3414e-08 -0.000222046 
         -50      21.2877 -1.74987e-08  1.22468e-08 -0.000222028 
         -50      21.4294 -2.36516e-08  9.40554e-09  -0.00022201 
         -50      21.5716 -1.98945e-08  9.07061e-09 -0.000221993 
         -50      21.7142 -1.22467e-08  1.03077e-08 -0.000221975 
         -50      21.8573 -4.75061e-09  1.21564e-08 -0.000221957 
         -50      22.0008 -2.57364e-09  1.37638e-08 -0.000221939 
         -50      22.1449 -6.70595e-09  1.48003e-08 -0.000221921 
         -50      22.2893 -9.87118e-09  1.52651e-08 -0.000221903 
         -50      22.4344 -1.20259e-08   1.5401e-08 -0.000221885 
         -50      22.5797 -1.32134e-08  1.53908e-08 -0.000221867 
         -50      22.7257 -1.35541e-08  1.53638e-08 -0.000221848 
         -50      22.8721 -1.32158e-08   1.5401e-08 -0.000221829 
         -50      23.0189 -1.23988e-08  1.55411e-08  -0.00022181 
         -50      23.1663 -1.13132e-08  1.57876e-08  -0.00022179 
         -50       23.314 -1.01678e-08  1.61147e-08 -0.000221771 
         -50      23.4623 -9.14985e-09  1.64769e-08 -0.000221751 
         -50       23.611 -8.41935e-09  1.68148e-08 -0.000221731 
         -50      23.7602 -8.09423e-09  1.70657e-08 -0.000221711 
         -50        23.91 -8.24789e-09  1.71717e-08 -0.000221691 
         -50        24.06 -8.90192e-09    1.709e-08 -0.000221671 
         -50      24.2107 -1.00286e-08  1.68033e-08  -0.00022165 
         -50      24.3617 -1.15485e-08  1.63314e-08  -0.00022163 
         -50      24.5133  -1.3344e-08  1.57413e-08 -0.000221609 
         -50      24.6653 -1.52586e-08  1.51623e-08 -0.000221589 
         -50      24.8178 -1.71225e-08   1.4796e-08 -0.000221568 
         -50      24.9708 -1.87588e-08  1.49335e-08 -0.000221547 
         -50      25.1242 -2.00119e-08  1.59663e-08 -0.000221526 
         -50      25.2781 -2.07759e-08  1.84066e-08 -0.000221505 
         -50      25.4324 -2.10205e-08   2.2894e-08 -0.000221484 
         -50      25.5873 -1.49309e-08  1.95161e-08 -0.000221463 
         -50      25.7426 -7.97873e-09  1.73345e-08 -0.000221442 
         -50      25.8984 -1.83567e-09  1.67618e-08 -0.000221421 
         -50      26.0546  2.59898e-09  1.72556e-08 -0.000221401 
         -50      26.2114  4.83743e-09  1.83295e-08  -0.00022138 
         -50      26.3686  4.81632e-09   1.9606e-08 -0.000221358 
         -50      26.5262  2.89056e-09  2.08412e-08 -0.000221337 
         -50      26.6844 -2.72279e-10  2.19211e-08 -0.000221315 
         -50      26.8429 -3.84555e-09  2.28136e-08 -0.000221293 
         -50       27.002 -7.10429e-09  2.34986e-08  -0.00022127 
         -50      27.1615 -9.73048e-09  2.38478e-08 -0.000221247 
         -50      27.3216 -1.22448e-08  2.34735e-08 -0.000221223 
         -50      27.4821 -1.64961e-08   2.1529e-08   -0.0002212 
         -50       27.643 -1.46708e-08  2.10376e-08 -0.000221177 
         -50      27.8044 -9.68176e-09  2.19325e-08 -0.000221154 
         -50      27.9663 -6.61712e-09  2.24043e-08 -0.000221132 
         -50      28.1287 -4.94944e-09  2.26091e-08 -0.000221109 
         -50      28.2914 -4.24959e-09   2.2672e-08 -0.000221086 
         -50      28.4548 -4.16616e-09  2.26913e-08 -0.000221063 
         -50      28.6185 -4.42288e-09  2.27412e-08 -0.000221039 
         -50      28.7828   -4.809e-09  2.28741e-08 -0.000221016 
         -50      28.9475 -5.17071e-09  2.31239e-08 -0.000220992 
         -50      29.1126 -5.40412e-09   2.3508e-08 -0.000220969 
         -50      29.2784 -5.44837e-09   2.4031e-08 -0.000220945 
         -50      29.4444 -5.27743e-09  2.46851e-08 -0.000220921 
         -50       29.611 -4.89353e-09  2.54553e-08 -0.000220897 
         -50       29.778 -4.32172e-09   2.6318e-08 -0.000220872 
         -50      29.9456 -3.60142e-09  2.72475e-08 -0.000220848 
         -50      30.1137 -2.78361e-09  2.82137e-08 -0.000220824 
         -50      30.2821 -1.92452e-09  2.91853e-08 -0.000220799 
         -50      30.4511 -1.07857e-09  3.01343e-08 -0.000220774 
         -50      30.6204 -2.98877e-10  3.10318e-08 -0.000220749 
         -50      30.7903  3.71558e-10  3.18552e-08 -0.000220724 
         -50      30.9606  8.98047e-10  3.25838e-08 -0.000220699 
         -50      31.1315  1.26076e-09  3.32044e-08 -0.000220674 
         -50      31.3028  1.45319e-09  3.37079e-08 -0.000220648 
         -50      31.4745  1.48496e-09  3.40917e-08 -0.000220623 
         -50      31.6468  1.38144e-09    3.436e-08 -0.000220597 
         -50      31.8194  1.18318e-09  3.45218e-08 -0.000220572 
         -50      31.9926  9.43826e-10  3.45923e-08 -0.000220546 
         -50      32.1662  7.28745e-10  3.45903e-08  -0.00022052 
         -50      32.3404  6.10286e-10  3.45382e-08 -0.000220494 
         -50      32.5149  6.64428e-10    3.446e-08 -0.000220468 
         -50        32.69  9.64771e-10  3.43789e-08 -0.000220441 
         -50      32.8655  1.57587e-09  3.43158e-08 -0.000220415 
         -50      33.0414  2.54439e-09   3.4286e-08 -0.000220388 
         -50       33.218  3.89346e-09  3.42962e-08 -0.000220362 
         -50      33.3948  5.60608e-09  3.43406e-08 -0.000220335 
         -50      33.5723  7.62196e-09  3.43974e-08 -0.000220309 
         -50        33.75  9.81357e-09  3.44234e-08 -0.000220282 
         -50      33.9284   1.1984e-08  3.43497e-08 -0.000220255 
         -50      34.1073  1.38384e-08  3.40753e-08 -0.000220228 
         -50      34.2865  1.49732e-08  3.34621e-08 -0.000220201 
         -50      34.4663  1.48575e-08  3.23254e-08 -0.000220174 
         -50      34.6465  1.28084e-08   3.0432e-08 -0.000220146 
         -50      34.8272    7.965e-09  2.74829e-08 -0.000220119 
         -50      35.0083  2.30389e-09  2.56176e-08 -0.000220091 
         -50        35.19 -3.61457e-09  2.59182e-08 -0.000220062 
         -50      35.3721 -1.16904e-08  2.77827e-08 -0.000220033 
         -50      35.5546  -1.6217e-08  3.08789e-08 -0.000220004 
         -50      35.7377  3.87067e-09  2.99863e-08 -0.000219977 
         -50      35.9211  1.59998e-08  3.10812e-08  -0.00021995 
         -50      36.1052  2.20048e-08  3.35568e-08 -0.000219922 
         -50      36.2895  2.34748e-08  3.68901e-08 -0.000219895 
         -50      36.4745  2.18111e-08  4.06485e-08 -0.000219867 
         -50      36.6598  1.82254e-08  4.44648e-08 -0.000219839 
         -50      36.8457   1.3683e-08  4.76713e-08  -0.00021981 
         -50      37.0321  8.16764e-09  4.41619e-08 -0.000219781 
         -50      37.2188  3.39451e-09  4.07946e-08 -0.000219752 
         -50      37.4062 -3.76798e-10  3.76886e-08 -0.000219723 
         -50      37.5938 -2.99544e-09   3.4933e-08 -0.000219693 
         -50      37.7821 -4.42355e-09  3.25724e-08 -0.000219664 
         -50      37.9707 -4.70137e-09  3.06308e-08 -0.000219634 
         -50      38.1599 -3.93904e-09  2.91007e-08 -0.000219605 
         -50      38.3496  -2.2962e-09  2.79609e-08 -0.000219575 
         -50      38.5396   2.9762e-11  2.71741e-08 -0.000219545 
         -50      38.7302   2.8268e-09  2.66916e-08 -0.000219516 
         -50      38.9211  5.86776e-09  2.64607e-08 -0.000219486 
         -50      39.1127  8.93937e-09  2.64253e-08 -0.000219456 
         -50      39.3046  1.18343e-08  2.65306e-08 -0.000219426 
         -50      39.4971  1.43795e-08  2.67262e-08 -0.000219396 
         -50      39.6899  1.64258e-08  2.69671e-08 -0.000219367 
         -50      39.8833  1.78703e-08  2.72176e-08 -0.000219336 
         -50      40.0772  1.86481e-08  2.74514e-08 -0.000219306 
         -50      40.2714  1.87426e-08  2.76528e-08 -0.000219276 
         -50      40.4663  1.81843e-08  2.78181e-08 -0.000219246 
         -50      40.6615  1.70502e-08   2.7954e-08 -0.000219216 
         -50      40.8573  1.54574e-08  2.80782e-08 -0.000219185 
         -50      41.0534  1.35648e-08  2.82172e-08 -0.000219155 
         -50      41.2501  1.15557e-08  2.84048e-08 -0.000219124 
         -50      41.4473  9.63792e-09  2.86789e-08 -0.000219093 
         -50      41.6448  8.02636e-09  2.90781e-08 -0.000219062 
         -50      41.8429  6.92454e-09  2.96387e-08 -0.000219031 
         -50      42.0414  6.51466e-09  3.03872e-08    -0.000219 
         -50      42.2405  6.93064e-09   3.1338e-08 -0.000218968 
         -50      42.4399  8.23666e-09  3.24821e-08 -0.000218937 
         -50      42.6399  1.04034e-08  3.37856e-08 -0.000218906 
         -50      42.8404  1.32724e-08  3.51748e-08 -0.000218874 
         -50      43.0412  1.65237e-08  3.65295e-08 -0.000218843 
         -50      43.2426  1.96493e-08   3.7676e-08 -0.000218811 
         -50      43.4444  2.18952e-08  3.83684e-08  -0.00021878 
         -50      43.6467  2.22348e-08  3.82823e-08 -0.000218748 
         -50      43.8494  1.93103e-08  3.69981e-08 -0.000218717 
         -50      44.0527  1.13783e-08  3.39836e-08 -0.000218686 
         -50      44.2563 -3.52403e-09  2.87813e-08 -0.000218656 
         -50      44.4606  -1.0983e-08  3.03677e-08 -0.000218624 
         -50      44.6653  -1.3109e-08  3.15704e-08 -0.000218592 
         -50      44.8704 -1.10437e-08  3.25062e-08 -0.000218561 
         -50       45.076 -5.90894e-09  3.32534e-08 -0.000218529 
         -50       45.282  1.19045e-09  3.38501e-08 -0.000218497 
         -50      45.4886  9.21039e-09  3.43013e-08 -0.000218465 
         -50      45.6955  1.71406e-08  3.45781e-08 -0.000218434 
         -50       45.903  2.40668e-08  3.46234e-08 -0.000218402 
         -50      46.1111  2.91413e-08  3.43538e-08 -0.000218369 
         -50      46.3194  3.16223e-08  3.36646e-08 -0.000218337 
         -50      46.5283  3.08884e-08   3.2431e-08 -0.000218304 
         -50      46.7376  2.64441e-08  3.05175e-08 -0.000218271 
         -50      46.9475  1.79277e-08  2.77736e-08 -0.000218238 
         -50      47.1577  5.15456e-09  2.40514e-08 -0.000218205 
         -50      47.3685 -3.47919e-10  2.36427e-08 -0.000218172 
         -50      47.5798  9.40466e-09  2.90435e-08  -0.00021814 
         -50      47.7914  1.56752e-08  3.27352e-08 -0.000218108 
         -50      48.0037  1.93255e-08   3.4982e-08 -0.000218076 