Variables = x, y, u, v, p

Zone, I=20800, F=POINT
         -50            0            0            0   0.00014846 
         -50     0.000234 -4.63313e-09 -8.78832e-12   0.00014846 
         -50     0.000939 -1.79814e-08 -5.90055e-11   0.00014846 
         -50     0.002113  -3.8204e-08 -2.21896e-10   0.00014846 
         -50     0.003759 -6.24363e-08 -6.17396e-10   0.00014846 
         -50     0.005872 -8.67232e-08 -1.41109e-09   0.00014846 
         -50     0.008457 -1.06442e-07 -2.81753e-09  0.000148459 
         -50      0.01151 -1.16283e-07 -5.08936e-09  0.000148459 
         -50     0.015036 -1.10605e-07 -8.52089e-09  0.000148459 
         -50     0.019031 -8.36077e-08 -1.34255e-08  0.000148459 
         -50     0.023493 -2.96381e-08 -2.01315e-08  0.000148458 
         -50     0.028429  5.67695e-08 -2.89877e-08  0.000148458 
         -50     0.033831  1.80296e-07 -4.03163e-08  0.000148458 
         -50     0.039706   3.4513e-07 -5.44638e-08  0.000148458 
         -50     0.046047  5.54102e-07 -7.17436e-08  0.000148457 
         -50     0.052863  8.09322e-07 -9.25137e-08  0.000148457 
         -50      0.06015  1.11109e-06 -1.17094e-07  0.000148457 
         -50       0.0679  1.45802e-06 -1.45741e-07  0.000148456 
         -50     0.076126  1.84832e-06 -1.78635e-07  0.000148456 
         -50     0.084816  2.27795e-06 -2.15603e-07  0.000148456 
         -50     0.093982  2.74258e-06 -2.57786e-07  0.000148456 
         -50     0.103611  3.23733e-06 -3.04438e-07  0.000148456 
         -50     0.113718  3.75519e-06 -3.55049e-07  0.000148456 
         -50     0.124286  4.28769e-06 -4.09341e-07  0.000148456 
         -50     0.135333  4.82846e-06 -4.67455e-07  0.000148456 
         -50      0.14685  5.37027e-06 -5.29382e-07  0.000148456 
         -50     0.158827  5.90642e-06 -5.94754e-07  0.000148457 
         -50     0.171284  6.43192e-06 -6.62668e-07  0.000148457 
         -50     0.184201  6.94028e-06  -7.3106e-07  0.000148458 
         -50     0.197599   7.4268e-06 -7.97155e-07  0.000148458 
         -50     0.211455  7.88545e-06 -8.57578e-07  0.000148459 
         -50     0.225792  8.31273e-06   -9.102e-07   0.00014846 
         -50       0.2406  8.70655e-06 -9.56535e-07   0.00014846 
         -50     0.255865  9.07556e-06 -9.87938e-07  0.000148461 
         -50     0.271613  9.41184e-06 -9.95167e-07  0.000148462 
         -50     0.287818  9.71478e-06 -1.02501e-06  0.000148463 
         -50     0.304506  9.99937e-06 -1.09456e-06  0.000148465 
         -50      0.32165  1.02729e-05 -1.21067e-06  0.000148467 
         -50     0.339278   1.0537e-05 -1.37032e-06   0.00014847 
         -50     0.357377  1.07872e-05 -1.56061e-06  0.000148474 
         -50      0.37593   1.1015e-05 -1.76026e-06  0.000148478 
         -50     0.394968  1.12097e-05 -1.94234e-06  0.000148482 
         -50     0.414461  1.13595e-05 -2.07626e-06  0.000148485 
         -50      0.43444  1.14548e-05 -2.13265e-06  0.000148487 
         -50     0.454872   1.1489e-05 -2.08744e-06  0.000148487 
         -50     0.475791  1.14601e-05 -1.92767e-06  0.000148483 
         -50     0.497163  1.13716e-05 -1.65811e-06  0.000148475 
         -50     0.519021  1.12305e-05 -1.30705e-06  0.000148463 
         -50      0.54135   1.1044e-05 -9.34682e-07  0.000148447 
         -50     0.564131  1.08138e-05 -6.39597e-07  0.000148428 
         -50       0.5874  1.05235e-05 -5.64626e-07  0.000148406 
         -50     0.611121  1.01675e-05 -9.89288e-07   0.00014839 
         -50      0.63533  1.00632e-05 -2.36594e-06  0.000148421 
         -50      0.65999  9.79263e-06 -3.43668e-06  0.000148446 
         -50     0.685139  9.39558e-06 -4.22855e-06  0.000148467 
         -50     0.710759  8.91116e-06 -4.76952e-06  0.000148483 
         -50     0.736828  8.37707e-06 -5.09113e-06  0.000148493 
         -50     0.763387  7.82728e-06 -5.22788e-06  0.000148499 
         -50     0.790396  7.29437e-06 -5.21492e-06    0.0001485 
         -50     0.817896  6.80565e-06 -5.08828e-06  0.000148496 
         -50     0.845843  6.38578e-06 -4.88383e-06  0.000148488 
         -50     0.874283  6.05323e-06 -4.63564e-06  0.000148476 
         -50      0.90317  5.82252e-06 -4.37615e-06  0.000148461 
         -50     0.932551  5.70171e-06 -4.13366e-06  0.000148443 
         -50     0.962401   5.6937e-06 -3.93273e-06  0.000148423 
         -50     0.992697  5.79511e-06 -3.79245e-06  0.000148402 
         -50      1.02349    5.997e-06 -3.72542e-06   0.00014838 
         -50      1.05472  6.28432e-06 -3.73775e-06  0.000148358 
         -50      1.08645  6.63765e-06 -3.82817e-06  0.000148337 
         -50      1.11863  7.03205e-06 -3.98786e-06  0.000148317 
         -50       1.1513  7.44029e-06 -4.20125e-06  0.000148299 
         -50      1.18444  7.83195e-06 -4.44596e-06  0.000148283 
         -50      1.21802  8.17617e-06 -4.69451e-06  0.000148269 
         -50      1.25211   8.4445e-06 -4.91703e-06  0.000148257 
         -50      1.28663  8.61158e-06 -5.08286e-06  0.000148248 
         -50      1.32165  8.65992e-06 -5.16588e-06  0.000148239 
         -50      1.35712  8.58246e-06 -5.14858e-06   0.00014823 
         -50      1.39308  8.38713e-06 -5.02909e-06  0.000148219 
         -50      1.42951  8.10197e-06  -4.8292e-06  0.000148202 
         -50      1.46638  7.78101e-06 -4.60449e-06  0.000148178 
         -50      1.50375  7.50969e-06 -4.45549e-06   0.00014814 
         -50      1.54156  7.14678e-06 -4.54231e-06  0.000148118 
         -50      1.57987  6.75164e-06 -4.60812e-06  0.000148097 
         -50      1.61863  6.34116e-06 -4.64509e-06  0.000148075 
         -50      1.65788  5.91928e-06 -4.65735e-06  0.000148053 
         -50      1.69757  5.49104e-06  -4.6487e-06   0.00014803 
         -50      1.73776  5.05978e-06 -4.62264e-06  0.000148006 
         -50      1.77842  4.62955e-06  -4.5824e-06  0.000147982 
         -50      1.81952  4.20412e-06 -4.53095e-06  0.000147957 
         -50      1.86113  3.78584e-06  -4.4708e-06  0.000147932 
         -50      1.90316  3.37812e-06 -4.40436e-06  0.000147907 
         -50      1.94571  2.98267e-06 -4.33349e-06  0.000147881 
         -50      1.98869  2.60217e-06 -4.25998e-06  0.000147856 
         -50      2.03217  2.23768e-06 -4.18509e-06   0.00014783 
         -50      2.07612  1.89088e-06 -4.10996e-06  0.000147804 
         -50      2.12051  1.56305e-06 -4.03547e-06  0.000147778 
         -50       2.1654   1.2544e-06 -3.96206e-06  0.000147752 
         -50      2.21073  9.65854e-07 -3.89019e-06  0.000147726 
         -50      2.25656  6.97107e-07 -3.81987e-06  0.000147701 
         -50      2.30283  4.48501e-07 -3.75115e-06  0.000147676 
         -50       2.3496  2.19339e-07 -3.68375e-06   0.00014765 
         -50      2.39685  9.32133e-09 -3.61741e-06  0.000147626 
         -50      2.44452 -1.82067e-07 -3.55178e-06  0.000147601 
         -50      2.49271 -3.55919e-07 -3.48633e-06  0.000147577 
         -50      2.54132 -5.12852e-07 -3.42073e-06  0.000147553 
         -50      2.59044 -6.54066e-07 -3.35443e-06  0.000147529 
         -50         2.64  -7.8032e-07 -3.28718e-06  0.000147506 
         -50      2.69006 -8.92792e-07  -3.2186e-06  0.000147483 
         -50      2.74056 -9.92253e-07 -3.14863e-06  0.000147461 
         -50      2.79156 -1.07975e-06 -3.07712e-06  0.000147438 
         -50      2.84304 -1.15601e-06 -3.00425e-06  0.000147416 
         -50      2.89494 -1.22168e-06 -2.93037e-06  0.000147395 
         -50      2.94735 -1.27748e-06 -2.85581e-06  0.000147374 
         -50       3.0002  -1.3238e-06 -2.78127e-06  0.000147353 
         -50      3.05355 -1.36107e-06 -2.70739e-06  0.000147333 
         -50      3.10733 -1.38954e-06 -2.63507e-06  0.000147312 
         -50      3.16163 -1.40947e-06 -2.56508e-06  0.000147292 
         -50      3.21639 -1.42105e-06 -2.49827e-06  0.000147273 
         -50      3.27158 -1.42455e-06 -2.43539e-06  0.000147253 
         -50      3.32729 -1.42039e-06 -2.37677e-06  0.000147234 
         -50      3.38342 -1.40923e-06 -2.32251e-06  0.000147216 
         -50      3.44007 -1.39208e-06 -2.27199e-06  0.000147197 
         -50      3.49714 -1.37054e-06 -2.22393e-06  0.000147179 
         -50      3.55472 -1.34689e-06 -2.17586e-06  0.000147161 
         -50      3.61273 -1.32442e-06  -2.1241e-06  0.000147144 
         -50      3.67125 -1.30761e-06 -2.06316e-06  0.000147127 
         -50      3.73025  -1.3025e-06 -1.98557e-06  0.000147111 
         -50      3.78967 -1.28907e-06 -1.92312e-06  0.000147094 
         -50      3.84961 -1.26657e-06 -1.87694e-06  0.000147078 
         -50      3.90996 -1.24455e-06  -1.8325e-06  0.000147062 
         -50      3.97084  -1.2252e-06 -1.78218e-06  0.000147046 
         -50      4.03214 -1.20678e-06  -1.7315e-06  0.000147029 
         -50      4.09395 -1.18896e-06 -1.68183e-06  0.000147014 
         -50      4.15624 -1.17175e-06 -1.63348e-06  0.000146999 
         -50      4.21895 -1.15514e-06 -1.58666e-06  0.000146984 
         -50      4.28217 -1.13906e-06 -1.54137e-06  0.000146969 
         -50      4.34582 -1.12347e-06 -1.49771e-06  0.000146955 
         -50      4.40998 -1.10825e-06 -1.45556e-06  0.000146941 
         -50      4.47457 -1.09336e-06 -1.41489e-06  0.000146928 
         -50      4.53968 -1.07871e-06 -1.37551e-06  0.000146914 
         -50      4.60525 -1.06425e-06  -1.3373e-06    0.0001469 
         -50      4.67125 -1.04998e-06 -1.30014e-06  0.000146887 
         -50      4.73777 -1.03587e-06 -1.26379e-06  0.000146873 
         -50       4.8047 -1.02195e-06 -1.22818e-06  0.000146859 
         -50      4.87216 -1.00827e-06 -1.19311e-06  0.000146846 
         -50      4.94003 -9.94911e-07 -1.15856e-06  0.000146832 
         -50      5.00843 -9.81945e-07 -1.12442e-06  0.000146819 
         -50      5.07724 -9.69489e-07 -1.09075e-06  0.000146805 
         -50      5.14658 -9.57613e-07 -1.05755e-06  0.000146792 
         -50      5.21639 -9.46391e-07 -1.02495e-06  0.000146778 
         -50      5.28661 -9.35847e-07  -9.9316e-07  0.000146765 
         -50      5.35736 -9.25904e-07 -9.62357e-07  0.000146752 
         -50      5.42852 -9.16407e-07 -9.32872e-07  0.000146739 
         -50      5.50021 -9.07018e-07 -9.04989e-07  0.000146727 
         -50      5.57231  -8.9723e-07 -8.79113e-07  0.000146714 
         -50      5.64493 -8.86248e-07 -8.55582e-07  0.000146702 
         -50      5.71803 -8.74798e-07 -8.29407e-07  0.000146689 
         -50      5.79154 -8.64042e-07 -8.04189e-07  0.000146676 
         -50      5.86558 -8.54248e-07 -7.80223e-07  0.000146664 
         -50      5.94003  -8.4547e-07 -7.57644e-07  0.000146652 
         -50      6.01501 -8.37565e-07 -7.36327e-07   0.00014664 
         -50       6.0904 -8.30328e-07 -7.16094e-07  0.000146628 
         -50      6.16632   -8.235e-07 -6.96628e-07  0.000146616 
         -50      6.24271 -8.16866e-07 -6.77648e-07  0.000146603 
         -50       6.3195 -8.10277e-07 -6.58908e-07  0.000146591 
         -50      6.39683 -8.03656e-07 -6.40203e-07  0.000146579 
         -50      6.47457 -7.97045e-07 -6.21518e-07  0.000146566 
         -50      6.55284 -7.90541e-07  -6.0295e-07  0.000146554 
         -50      6.63152 -7.84307e-07  -5.8486e-07  0.000146542 
         -50      6.71073 -7.78461e-07 -5.67783e-07  0.000146531 
         -50      6.79034 -7.73427e-07 -5.52152e-07  0.000146519 
         -50      6.87049 -7.67675e-07 -5.37038e-07  0.000146506 
         -50      6.95111 -7.61141e-07 -5.22271e-07  0.000146494 
         -50      7.03214 -7.54149e-07 -5.07882e-07  0.000146482 
         -50       7.1137 -7.46946e-07 -4.93952e-07   0.00014647 
         -50      7.19566 -7.39741e-07 -4.80668e-07  0.000146458 
         -50      7.27816 -7.32662e-07 -4.68194e-07  0.000146446 
         -50      7.36106 -7.25809e-07 -4.56718e-07  0.000146434 
         -50      7.44451 -7.19207e-07 -4.46339e-07  0.000146422 
         -50      7.52842 -7.12858e-07 -4.37082e-07   0.00014641 
         -50      7.61273  -7.0673e-07 -4.28828e-07  0.000146398 
         -50      7.69758 -7.00756e-07  -4.2125e-07  0.000146386 
         -50      7.78283 -6.94879e-07 -4.13803e-07  0.000146374 
         -50      7.86862 -6.89032e-07 -4.05624e-07  0.000146361 
         -50      7.95481 -6.83193e-07 -3.95528e-07  0.000146349 
         -50      8.04155  -6.7737e-07 -3.81887e-07  0.000146335 
         -50      8.12868 -6.71029e-07 -3.77815e-07  0.000146323 
         -50      8.21635  -6.6522e-07 -3.75049e-07  0.000146311 
         -50      8.30449 -6.60023e-07 -3.70498e-07  0.000146299 
         -50      8.39303 -6.55295e-07 -3.64867e-07  0.000146287 
         -50      8.48211 -6.50929e-07 -3.58688e-07  0.000146275 
         -50      8.57159 -6.46869e-07 -3.52366e-07  0.000146262 
         -50      8.66161 -6.43073e-07 -3.46164e-07   0.00014625 
         -50      8.75203 -6.39522e-07 -3.40261e-07  0.000146238 
         -50      8.84299 -6.36172e-07 -3.34732e-07  0.000146225 
         -50      8.93443 -6.32941e-07 -3.29604e-07  0.000146213 
         -50      9.02626 -6.29667e-07 -3.24858e-07    0.0001462 
         -50      9.11863  -6.2605e-07 -3.20445e-07  0.000146187 
         -50      9.21139 -6.21613e-07 -3.16331e-07  0.000146175 
         -50      9.30471 -6.15618e-07 -3.12492e-07  0.000146162 
         -50      9.39841 -6.10937e-07 -3.09112e-07   0.00014615 
         -50      9.49267 -6.07757e-07 -3.06102e-07  0.000146138 
         -50      9.58739 -6.03191e-07 -3.03205e-07  0.000146125 
         -50      9.68251 -5.97812e-07  -3.0035e-07  0.000146113 
         -50      9.77817 -5.92049e-07 -2.97479e-07    0.0001461 
         -50      9.87422 -5.86234e-07 -2.94559e-07  0.000146087 
         -50      9.97083  -5.8058e-07 -2.91559e-07  0.000146075 
         -50      10.0678 -5.75233e-07 -2.88475e-07  0.000146062 
         -50      10.1654  -5.7025e-07 -2.85301e-07  0.000146049 
         -50      10.2633 -5.65644e-07  -2.8205e-07  0.000146037 
         -50      10.3618 -5.61369e-07 -2.78734e-07  0.000146024 
         -50      10.4607 -5.57358e-07 -2.75375e-07  0.000146011 
         -50      10.5601 -5.53523e-07 -2.72002e-07  0.000145998 
         -50        10.66 -5.49755e-07 -2.68636e-07  0.000145985 
         -50      10.7603  -5.4596e-07  -2.6531e-07  0.000145973 
         -50      10.8611  -5.4204e-07 -2.62048e-07   0.00014596 
         -50      10.9623 -5.37928e-07 -2.58882e-07  0.000145947 
         -50      11.0641 -5.33566e-07 -2.55829e-07  0.000145934 
         -50      11.1663 -5.28932e-07 -2.52916e-07  0.000145922 
         -50       11.269 -5.24037e-07 -2.50161e-07  0.000145909 
         -50      11.3721 -5.18909e-07 -2.47575e-07  0.000145896 
         -50      11.4757  -5.1362e-07 -2.45174e-07  0.000145884 
         -50      11.5798 -5.08251e-07 -2.42961e-07  0.000145871 
         -50      11.6844 -5.02915e-07 -2.40947e-07  0.000145859 
         -50      11.7894 -4.97717e-07 -2.39133e-07  0.000145846 
         -50       11.895 -4.92766e-07 -2.37527e-07  0.000145834 
         -50      12.0009 -4.88149e-07 -2.36137e-07  0.000145821 
         -50      12.1073 -4.83899e-07 -2.34975e-07  0.000145808 
         -50      12.2142 -4.79993e-07 -2.34064e-07  0.000145795 
         -50      12.3216 -4.76299e-07 -2.33434e-07  0.000145782 
         -50      12.4294 -4.72568e-07 -2.33136e-07  0.000145768 
         -50      12.5378  -4.6837e-07 -2.33237e-07  0.000145754 
         -50      12.6465 -4.63481e-07 -2.31313e-07  0.000145741 
         -50      12.7558 -4.61402e-07 -2.22824e-07  0.000145731 
         -50      12.8656 -4.58611e-07 -2.24063e-07  0.000145719 
         -50      12.9757 -4.57503e-07 -2.22742e-07  0.000145706 
         -50      13.0864 -4.55319e-07 -2.23175e-07  0.000145694 
         -50      13.1975 -4.52855e-07 -2.23404e-07  0.000145681 
         -50      13.3092  -4.5004e-07 -2.23391e-07  0.000145668 
         -50      13.4212 -4.46864e-07 -2.23117e-07  0.000145655 
         -50      13.5338 -4.43346e-07 -2.22585e-07  0.000145642 
         -50      13.6468 -4.39543e-07 -2.21809e-07  0.000145629 
         -50      13.7603 -4.35532e-07 -2.20817e-07  0.000145616 
         -50      13.8743 -4.31393e-07 -2.19644e-07  0.000145603 
         -50      13.9886 -4.27219e-07  -2.1833e-07   0.00014559 
         -50      14.1036 -4.23084e-07 -2.16916e-07  0.000145577 
         -50      14.2189 -4.19067e-07 -2.15448e-07  0.000145564 
         -50      14.3348 -4.15215e-07 -2.13964e-07  0.000145551 
         -50       14.451 -4.11564e-07 -2.12501e-07  0.000145538 
         -50      14.5678 -4.08116e-07 -2.11088e-07  0.000145525 
         -50      14.6851 -4.04857e-07 -2.09747e-07  0.000145512 
         -50      14.8028 -4.01743e-07 -2.08493e-07  0.000145499 
         -50       14.921 -3.98701e-07 -2.07329e-07  0.000145486 
         -50      15.0396 -3.95646e-07 -2.06253e-07  0.000145473 
         -50      15.1588 -3.92468e-07 -2.05249e-07  0.000145461 
         -50      15.2783 -3.89061e-07 -2.04299e-07  0.000145448 
         -50      15.3984 -3.85309e-07 -2.03373e-07  0.000145435 
         -50       15.519  -3.8112e-07 -2.02442e-07  0.000145422 
         -50        15.64 -3.76433e-07 -2.01474e-07  0.000145409 
         -50      15.7615 -3.71224e-07 -2.00436e-07  0.000145396 
         -50      15.8834 -3.65554e-07 -1.99307e-07  0.000145383 
         -50      16.0058 -3.59557e-07 -1.98073e-07   0.00014537 
         -50      16.1286  -3.5351e-07 -1.96743e-07  0.000145357 
         -50       16.252 -3.47818e-07 -1.95343e-07  0.000145343 
         -50      16.3759  -3.4309e-07 -1.93938e-07   0.00014533 
         -50      16.5002 -3.40155e-07 -1.92634e-07  0.000145317 
         -50       16.625 -3.40105e-07 -1.91586e-07  0.000145303 
         -50      16.7501 -3.39193e-07 -1.90724e-07   0.00014529 
         -50      16.8759 -3.35431e-07 -1.89015e-07  0.000145277 
         -50       17.002 -3.33319e-07 -1.86686e-07  0.000145264 
         -50      17.1287  -3.3192e-07  -1.8403e-07  0.000145251 
         -50      17.2557 -3.30567e-07 -1.81275e-07  0.000145238 
         -50      17.3834 -3.28818e-07 -1.78579e-07  0.000145224 
         -50      17.5115 -3.26425e-07 -1.76051e-07  0.000145211 
         -50      17.6399 -3.23298e-07 -1.73752e-07  0.000145197 
         -50       17.769 -3.19465e-07 -1.71699e-07  0.000145183 
         -50      17.8984 -3.15058e-07 -1.69886e-07   0.00014517 
         -50      18.0284 -3.10256e-07 -1.68273e-07  0.000145156 
         -50      18.1587 -3.05292e-07 -1.66811e-07  0.000145143 
         -50      18.2896 -3.00392e-07 -1.65435e-07  0.000145129 
         -50       18.421 -2.95781e-07 -1.64079e-07  0.000145115 
         -50      18.5528 -2.91654e-07 -1.62678e-07  0.000145102 
         -50      18.6851 -2.88148e-07 -1.61172e-07  0.000145088 
         -50      18.8178 -2.85352e-07 -1.59517e-07  0.000145075 
         -50      18.9511 -2.83278e-07 -1.57681e-07  0.000145061 
         -50      19.0847  -2.8187e-07 -1.55656e-07  0.000145047 
         -50      19.2189 -2.80996e-07 -1.53454e-07  0.000145034 
         -50      19.3535 -2.80457e-07 -1.51117e-07   0.00014502 
         -50      19.4886 -2.79993e-07 -1.48708e-07  0.000145006 
         -50      19.6242 -2.79306e-07 -1.46323e-07  0.000144991 
         -50      19.7602 -2.78071e-07 -1.44084e-07  0.000144977 
         -50      19.8968 -2.75972e-07 -1.42135e-07  0.000144963 
         -50      20.0337 -2.72735e-07  -1.4065e-07  0.000144948 
         -50      20.1712 -2.68163e-07 -1.39819e-07  0.000144934 
         -50      20.3091 -2.61816e-07  -1.3978e-07   0.00014492 
         -50      20.4475 -2.53901e-07 -1.39384e-07  0.000144906 
         -50      20.5864 -2.46946e-07 -1.38077e-07  0.000144892 
         -50      20.7257 -2.41947e-07 -1.35729e-07  0.000144878 
         -50      20.8655 -2.40295e-07 -1.32157e-07  0.000144864 
         -50      21.0058 -2.43891e-07 -1.27142e-07  0.000144849 
         -50      21.1465 -2.55251e-07 -1.20391e-07  0.000144835 
         -50      21.2877 -2.52438e-07  -1.1854e-07   0.00014482 
         -50      21.4294 -2.36948e-07 -1.21316e-07  0.000144805 
         -50      21.5716 -2.36037e-07 -1.20693e-07   0.00014479 
         -50      21.7142 -2.41709e-07 -1.18353e-07  0.000144775 
         -50      21.8573 -2.47944e-07  -1.1538e-07   0.00014476 
         -50      22.0008 -2.48799e-07 -1.13188e-07  0.000144745 
         -50      22.1449 -2.43466e-07 -1.13101e-07  0.000144732 
         -50      22.2893 -2.37502e-07 -1.13264e-07  0.000144718 
         -50      22.4344 -2.31527e-07 -1.13475e-07  0.000144703 
         -50      22.5797 -2.26056e-07 -1.13569e-07  0.000144689 
         -50      22.7257 -2.21447e-07 -1.13416e-07  0.000144674 
         -50      22.8721 -2.17934e-07 -1.12931e-07  0.000144659 
         -50      23.0189 -2.15605e-07 -1.12072e-07  0.000144643 
         -50      23.1663 -2.14407e-07 -1.10838e-07  0.000144628 
         -50       23.314 -2.14168e-07 -1.09273e-07  0.000144612 
         -50      23.4623 -2.14604e-07 -1.07451e-07  0.000144597 
         -50       23.611 -2.15346e-07  -1.0548e-07  0.000144581 
         -50      23.7602 -2.15971e-07 -1.03476e-07  0.000144565 
         -50        23.91 -2.16033e-07 -1.01566e-07   0.00014455 
         -50        24.06 -2.15118e-07 -9.98608e-08  0.000144534 
         -50      24.2107 -2.12883e-07 -9.84329e-08  0.000144518 
         -50      24.3617 -2.09134e-07 -9.73025e-08  0.000144503 
         -50      24.5133 -2.03872e-07 -9.64005e-08  0.000144487 
         -50      24.6653 -1.97405e-07 -9.55446e-08  0.000144471 
         -50      24.8178 -1.90398e-07 -9.43975e-08  0.000144456 
         -50      24.9708 -1.84007e-07  -9.2432e-08  0.000144439 
         -50      25.1242 -1.79976e-07 -8.88878e-08  0.000144423 
         -50      25.2781 -1.80745e-07  -8.2711e-08  0.000144405 
         -50      25.4324 -1.89599e-07  -7.2526e-08  0.000144387 
         -50      25.5873 -1.89975e-07 -7.61561e-08  0.000144372 
         -50      25.7426 -1.89601e-07 -7.98778e-08  0.000144357 
         -50      25.8984 -1.89014e-07 -8.19955e-08  0.000144341 
         -50      26.0546  -1.8771e-07 -8.25095e-08  0.000144325 
         -50      26.2114 -1.85485e-07 -8.15636e-08  0.000144309 
         -50      26.3686  -1.8241e-07 -7.94227e-08  0.000144292 
         -50      26.5262 -1.78775e-07 -7.64592e-08  0.000144275 
         -50      26.6844 -1.74979e-07 -7.31196e-08  0.000144258 
         -50      26.8429 -1.71431e-07 -6.99171e-08  0.000144241 
         -50       27.002 -1.68366e-07 -6.73834e-08  0.000144224 
         -50      27.1615 -1.65667e-07  -6.6057e-08  0.000144207 
         -50      27.3216 -1.62611e-07 -6.64335e-08   0.00014419 
         -50      27.4821 -1.57605e-07 -6.89374e-08  0.000144172 
         -50       27.643 -1.58307e-07 -6.88927e-08  0.000144155 
         -50      27.8044 -1.61516e-07 -6.66221e-08  0.000144138 
         -50      27.9663 -1.62564e-07 -6.45666e-08  0.000144121 
         -50      28.1287 -1.62069e-07 -6.27401e-08  0.000144103 
         -50      28.2914 -1.60539e-07   -6.115e-08  0.000144086 
         -50      28.4548 -1.58382e-07 -5.97865e-08  0.000144069 
         -50      28.6185 -1.55924e-07 -5.86353e-08  0.000144051 
         -50      28.7828 -1.53407e-07 -5.76706e-08  0.000144033 
         -50      28.9475 -1.51008e-07 -5.68638e-08  0.000144016 
         -50      29.1126 -1.48847e-07 -5.61818e-08  0.000143998 
         -50      29.2784 -1.46986e-07 -5.55875e-08   0.00014398 
         -50      29.4444 -1.45452e-07 -5.50452e-08  0.000143962 
         -50       29.611 -1.44232e-07  -5.4518e-08  0.000143944 
         -50       29.778 -1.43292e-07 -5.39725e-08  0.000143926 
         -50      29.9456 -1.42573e-07 -5.33768e-08  0.000143908 
         -50      30.1137 -1.42009e-07 -5.27044e-08  0.000143889 
         -50      30.2821 -1.41523e-07 -5.19338e-08  0.000143871 
         -50      30.4511 -1.41041e-07 -5.10477e-08  0.000143853 
         -50      30.6204 -1.40491e-07 -5.00374e-08  0.000143834 
         -50      30.7903 -1.39811e-07 -4.88979e-08  0.000143816 
         -50      30.9606 -1.38951e-07 -4.76347e-08  0.000143797 
         -50      31.1315 -1.37877e-07 -4.62558e-08  0.000143779 
         -50      31.3028 -1.36571e-07  -4.4779e-08   0.00014376 
         -50      31.4745 -1.35036e-07 -4.32286e-08  0.000143741 
         -50      31.6468 -1.33292e-07 -4.16302e-08  0.000143723 
         -50      31.8194 -1.31379e-07  -4.0019e-08  0.000143704 
         -50      31.9926 -1.29352e-07 -3.84281e-08  0.000143685 
         -50      32.1662 -1.27283e-07 -3.68975e-08  0.000143666 
         -50      32.3404  -1.2525e-07 -3.54619e-08  0.000143647 
         -50      32.5149 -1.23343e-07 -3.41585e-08  0.000143628 
         -50        32.69 -1.21642e-07 -3.30154e-08  0.000143609 
         -50      32.8655 -1.20227e-07 -3.20565e-08  0.000143589 
         -50      33.0414 -1.19157e-07 -3.12941e-08   0.00014357 
         -50       33.218  -1.1846e-07 -3.07248e-08   0.00014355 
         -50      33.3948 -1.18129e-07 -3.03294e-08  0.000143531 
         -50      33.5723 -1.18101e-07 -3.00645e-08  0.000143511 
         -50        33.75 -1.18244e-07 -2.98608e-08  0.000143492 
         -50      33.9284 -1.18342e-07 -2.96158e-08  0.000143472 
         -50      34.1073 -1.18073e-07 -2.91897e-08  0.000143452 
         -50      34.2865 -1.16992e-07 -2.83992e-08  0.000143431 
         -50      34.4663 -1.14503e-07 -2.70084e-08  0.000143411 
         -50      34.6465 -1.09845e-07 -2.47276e-08  0.000143391 
         -50      34.8272 -1.02044e-07 -2.11954e-08   0.00014337 
         -50      35.0083 -9.54458e-08 -1.82926e-08  0.000143349 
         -50        35.19 -9.20097e-08 -1.74361e-08  0.000143329 
         -50      35.3721 -8.89232e-08 -1.80986e-08  0.000143308 
         -50      35.5546 -8.94804e-08 -2.07914e-08  0.000143287 
         -50      35.7377 -1.02583e-07  -2.2592e-08  0.000143268 
         -50      35.9211 -1.09464e-07 -2.32082e-08  0.000143248 
         -50      36.1052 -1.11501e-07 -2.26422e-08  0.000143228 
         -50      36.2895 -1.09894e-07 -2.09029e-08  0.000143208 
         -50      36.4745 -1.05691e-07 -1.80019e-08  0.000143188 
         -50      36.6598 -9.98081e-08 -1.39626e-08  0.000143168 
         -50      36.8457 -9.30663e-08 -9.04795e-09  0.000143147 
         -50      37.0321 -8.73376e-08 -7.93765e-09  0.000143126 
         -50      37.2188 -8.23934e-08 -7.02956e-09  0.000143105 
         -50      37.4062 -7.84581e-08 -6.34911e-09  0.000143084 
         -50      37.5938 -7.56519e-08 -5.90144e-09  0.000143062 
         -50      37.7821 -7.39856e-08 -5.67128e-09  0.000143041 
         -50      37.9707 -7.33974e-08 -5.62978e-09  0.000143019 
         -50      38.1599 -7.37588e-08 -5.73669e-09  0.000142997 
         -50      38.3496 -7.48973e-08 -5.94448e-09  0.000142976 
         -50      38.5396 -7.66073e-08 -6.20119e-09  0.000142954 
         -50      38.7302 -7.86716e-08  -6.4544e-09  0.000142932 
         -50      38.9211 -8.08643e-08 -6.65262e-09   0.00014291 
         -50      39.1127  -8.2975e-08 -6.74918e-09  0.000142889 
         -50      39.3046  -8.4806e-08 -6.70328e-09  0.000142867 
         -50      39.4971 -8.61942e-08 -6.48228e-09  0.000142845 
         -50      39.6899 -8.70073e-08 -6.06366e-09  0.000142824 
         -50      39.8833 -8.71582e-08 -5.43456e-09  0.000142802 
         -50      40.0772 -8.66028e-08 -4.59455e-09   0.00014278 
         -50      40.2714 -8.53475e-08 -3.55566e-09  0.000142758 
         -50      40.4663 -8.34431e-08 -2.33903e-09  0.000142736 
         -50      40.6615 -8.09919e-08 -9.80501e-10  0.000142715 
         -50      40.8573 -7.81314e-08  4.78075e-10  0.000142693 
         -50      41.0534 -7.50433e-08  1.98186e-09  0.000142671 
         -50      41.2501 -7.19278e-08  3.47416e-09  0.000142649 
         -50      41.4473 -6.90084e-08  4.89083e-09  0.000142627 
         -50      41.6448 -6.65111e-08  6.16721e-09  0.000142604 
         -50      41.8429 -6.46422e-08  7.24476e-09  0.000142582 
         -50      42.0414 -6.35816e-08  8.06873e-09   0.00014256 
         -50      42.2405   -6.345e-08  8.59986e-09  0.000142537 
         -50      42.4399 -6.42896e-08  8.81503e-09  0.000142515 
         -50      42.6399 -6.60349e-08  8.71698e-09  0.000142492 
         -50      42.8404 -6.84786e-08  8.33969e-09  0.000142469 
         -50      43.0412 -7.12351e-08   7.7578e-09  0.000142447 
         -50      43.2426 -7.37117e-08  7.09301e-09  0.000142424 
         -50      43.4444 -7.50508e-08  6.52688e-09  0.000142401 
         -50      43.6467 -7.40967e-08  6.30769e-09  0.000142378 
         -50      43.8494 -6.93408e-08   6.7644e-09  0.000142355 
         -50      44.0527 -5.88552e-08  8.31868e-09  0.000142333 
         -50      44.2563 -4.07193e-08  1.13421e-08   0.00014231 
         -50      44.4606 -3.90021e-08  9.47119e-09  0.000142286 
         -50      44.6653 -4.00231e-08  8.78906e-09  0.000142263 
         -50      44.8704 -4.30277e-08  8.91781e-09  0.000142239 
         -50       45.076 -4.72792e-08   9.5373e-09  0.000142216 
         -50       45.282 -5.20578e-08  1.03885e-08  0.000142193 
         -50      45.4886 -5.67049e-08  1.12817e-08   0.00014217 
         -50      45.6955 -6.06135e-08  1.20969e-08  0.000142147 
         -50       45.903 -6.32754e-08  1.27945e-08  0.000142124 
         -50      46.1111 -6.42783e-08  1.34161e-08  0.000142101 
         -50      46.3194 -6.33406e-08  1.40921e-08  0.000142078 
         -50      46.5283 -6.03234e-08  1.50489e-08  0.000142055 
         -50      46.7376 -5.52608e-08  1.66098e-08  0.000142031 
         -50      46.9475 -4.83608e-08  1.92082e-08  0.000142007 
         -50      47.1577 -4.00578e-08  2.33816e-08  0.000141983 
         -50      47.3685 -3.77299e-08  2.65827e-08  0.000141959 
         -50      47.5798 -4.43998e-08  2.51193e-08  0.000141936 
         -50      47.7914 -4.83797e-08  2.36643e-08  0.000141913 
         -50      48.0037 -5.03408e-08  2.23377e-08   0.00014189 