Variables = x, y, u, v, p

Zone, I=20800, F=POINT
         -50            0            0            0 -0.000692785 
         -50     0.000234  5.93332e-08 -1.99674e-11 -0.000692785 
         -50     0.000939  2.37082e-07 -6.42339e-11 -0.000692785 
         -50     0.002113  5.29737e-07 -8.45114e-11 -0.000692785 
         -50     0.003759  9.33118e-07  1.02636e-12 -0.000692784 
         -50     0.005872   1.4393e-06  3.08959e-10 -0.000692784 
         -50     0.008457  2.04116e-06  9.93438e-10 -0.000692784 
         -50      0.01151  2.72798e-06  2.24402e-09 -0.000692784 
         -50     0.015036  3.48977e-06  4.29006e-09 -0.000692784 
         -50     0.019031  4.31344e-06  7.39138e-09 -0.000692784 
         -50     0.023493  5.18545e-06  1.18387e-08 -0.000692783 
         -50     0.028429  6.09314e-06   1.7963e-08 -0.000692783 
         -50     0.033831  7.02041e-06  2.61076e-08 -0.000692783 
         -50     0.039706  7.95344e-06   3.6669e-08 -0.000692783 
         -50     0.046047  8.87602e-06  5.00591e-08 -0.000692782 
         -50     0.052863  9.77462e-06  6.67665e-08 -0.000692782 
         -50      0.06015  1.06345e-05  8.72964e-08 -0.000692781 
         -50       0.0679  1.14419e-05  1.12151e-07 -0.000692781 
         -50     0.076126  1.21862e-05  1.41837e-07 -0.000692781 
         -50     0.084816  1.28548e-05  1.76546e-07  -0.00069278 
         -50     0.093982  1.34398e-05   2.1749e-07  -0.00069278 
         -50     0.103611   1.3933e-05  2.65273e-07 -0.000692779 
         -50     0.113718  1.43292e-05  3.19909e-07 -0.000692779 
         -50     0.124286  1.46237e-05  3.81531e-07 -0.000692778 
         -50     0.135333  1.48152e-05  4.50683e-07 -0.000692777 
         -50      0.14685  1.49037e-05  5.27842e-07 -0.000692777 
         -50     0.158827  1.48913e-05  6.13357e-07 -0.000692776 
         -50     0.171284   1.4782e-05  7.07484e-07 -0.000692775 
         -50     0.184201  1.45815e-05  8.09691e-07 -0.000692775 
         -50     0.197599  1.42962e-05  9.19226e-07 -0.000692774 
         -50     0.211455  1.39345e-05  1.03465e-06 -0.000692773 
         -50     0.225792  1.35048e-05  1.15524e-06 -0.000692773 
         -50       0.2406  1.30172e-05  1.28167e-06 -0.000692772 
         -50     0.255865  1.24841e-05  1.41622e-06 -0.000692771 
         -50     0.271613  1.19157e-05  1.54789e-06  -0.00069277 
         -50     0.287818  1.13232e-05  1.67382e-06 -0.000692769 
         -50     0.304506   1.0716e-05    1.797e-06 -0.000692767 
         -50      0.32165  1.01045e-05  1.92315e-06 -0.000692765 
         -50     0.339278  9.49616e-06  2.06087e-06 -0.000692763 
         -50     0.357377  8.89929e-06  2.22013e-06 -0.000692762 
         -50      0.37593  8.32151e-06  2.41127e-06 -0.000692761 
         -50     0.394968  7.76858e-06  2.64424e-06 -0.000692761 
         -50     0.414461  7.24796e-06  2.92573e-06 -0.000692762 
         -50      0.43444   6.7655e-06  3.25907e-06 -0.000692764 
         -50     0.454872  6.32889e-06  3.64058e-06 -0.000692768 
         -50     0.475791  5.94445e-06  4.06026e-06 -0.000692773 
         -50     0.497163  5.61966e-06  4.49802e-06 -0.000692778 
         -50     0.519021  5.35985e-06   4.9257e-06 -0.000692784 
         -50      0.54135  5.16871e-06  5.30497e-06  -0.00069279 
         -50     0.564131  5.04505e-06     5.59e-06 -0.000692795 
         -50       0.5874  4.97943e-06  5.73129e-06 -0.000692797 
         -50     0.611121  4.96294e-06  5.67824e-06 -0.000692795 
         -50      0.63533  5.05361e-06  5.57265e-06  -0.00069278 
         -50      0.65999  5.09979e-06  5.57906e-06 -0.000692768 
         -50     0.685139  5.11822e-06  5.68491e-06  -0.00069276 
         -50     0.710759  5.12354e-06  5.87706e-06 -0.000692755 
         -50     0.736828  5.12818e-06  6.14168e-06 -0.000692753 
         -50     0.763387  5.14222e-06  6.46546e-06 -0.000692755 
         -50     0.790396  5.17315e-06  6.83423e-06 -0.000692759 
         -50     0.817896  5.22595e-06  7.23517e-06 -0.000692765 
         -50     0.845843  5.30283e-06  7.65481e-06 -0.000692773 
         -50     0.874283  5.40368e-06  8.08182e-06 -0.000692782 
         -50      0.90317  5.52562e-06  8.50457e-06 -0.000692793 
         -50     0.932551  5.66388e-06   8.9141e-06 -0.000692804 
         -50     0.962401  5.81136e-06  9.30197e-06 -0.000692816 
         -50     0.992697  5.95929e-06  9.66159e-06 -0.000692827 
         -50      1.02349  6.09794e-06  9.98917e-06 -0.000692838 
         -50      1.05472  6.21629e-06  1.02819e-05 -0.000692848 
         -50      1.08645  6.30346e-06    1.054e-05 -0.000692857 
         -50      1.11863  6.34851e-06  1.07651e-05 -0.000692864 
         -50       1.1513  6.34164e-06  1.09615e-05  -0.00069287 
         -50      1.18444  6.27449e-06  1.11351e-05 -0.000692873 
         -50      1.21802  6.14117e-06  1.12929e-05 -0.000692876 
         -50      1.25211  5.93844e-06  1.14436e-05 -0.000692877 
         -50      1.28663  5.66727e-06  1.15958e-05 -0.000692877 
         -50      1.32165  5.33214e-06  1.17579e-05 -0.000692877 
         -50      1.35712  4.94344e-06  1.19362e-05 -0.000692878 
         -50      1.39308  4.51577e-06  1.21345e-05 -0.000692881 
         -50      1.42951  4.07033e-06  1.23513e-05 -0.000692888 
         -50      1.46638  3.63434e-06  1.25784e-05 -0.000692901 
         -50      1.50375  3.23973e-06  1.27988e-05 -0.000692922 
         -50      1.54156  2.84917e-06  1.28959e-05 -0.000692934 
         -50      1.57987  2.46423e-06  1.29787e-05 -0.000692944 
         -50      1.61863   2.0892e-06  1.30542e-05 -0.000692955 
         -50      1.65788  1.72432e-06  1.31214e-05 -0.000692967 
         -50      1.69757    1.371e-06  1.31793e-05 -0.000692979 
         -50      1.73776  1.02933e-06   1.3227e-05 -0.000692992 
         -50      1.77842  7.00199e-07   1.3264e-05 -0.000693005 
         -50      1.81952  3.84383e-07  1.32896e-05 -0.000693019 
         -50      1.86113  8.17717e-08  1.33033e-05 -0.000693033 
         -50      1.90316 -2.06812e-07  1.33049e-05 -0.000693048 
         -50      1.94571 -4.81594e-07  1.32941e-05 -0.000693063 
         -50      1.98869 -7.41976e-07  1.32708e-05 -0.000693078 
         -50      2.03217 -9.88306e-07  1.32352e-05 -0.000693094 
         -50      2.07612 -1.22037e-06  1.31873e-05  -0.00069311 
         -50      2.12051 -1.43807e-06  1.31275e-05 -0.000693127 
         -50       2.1654 -1.64189e-06   1.3056e-05 -0.000693144 
         -50      2.21073 -1.83171e-06  1.29734e-05 -0.000693161 
         -50      2.25656 -2.00807e-06  1.28802e-05 -0.000693178 
         -50      2.30283 -2.17099e-06   1.2777e-05 -0.000693195 
         -50       2.3496 -2.32104e-06  1.26645e-05 -0.000693213 
         -50      2.39685 -2.45845e-06  1.25434e-05 -0.000693231 
         -50      2.44452 -2.58349e-06  1.24146e-05 -0.000693249 
         -50      2.49271 -2.69674e-06  1.22787e-05 -0.000693267 
         -50      2.54132  -2.7984e-06  1.21367e-05 -0.000693285 
         -50      2.59044 -2.88902e-06  1.19893e-05 -0.000693303 
         -50         2.64  -2.9688e-06  1.18375e-05 -0.000693321 
         -50      2.69006 -3.03824e-06  1.16817e-05  -0.00069334 
         -50      2.74056 -3.09753e-06  1.15231e-05 -0.000693358 
         -50      2.79156 -3.14708e-06   1.1362e-05 -0.000693376 
         -50      2.84304 -3.18712e-06  1.11991e-05 -0.000693394 
         -50      2.89494 -3.21789e-06  1.10353e-05 -0.000693412 
         -50      2.94735 -3.23966e-06  1.08706e-05  -0.00069343 
         -50       3.0002 -3.25265e-06  1.07058e-05 -0.000693448 
         -50      3.05355 -3.25711e-06   1.0541e-05 -0.000693466 
         -50      3.10733 -3.25329e-06  1.03766e-05 -0.000693483 
         -50      3.16163 -3.24149e-06  1.02127e-05 -0.000693501 
         -50      3.21639 -3.22211e-06  1.00494e-05 -0.000693519 
         -50      3.27158 -3.19565e-06  9.88697e-06 -0.000693536 
         -50      3.32729 -3.16273e-06  9.72529e-06 -0.000693554 
         -50      3.38342 -3.12423e-06   9.5647e-06 -0.000693571 
         -50      3.44007 -3.08122e-06  9.40513e-06 -0.000693588 
         -50      3.49714 -3.03521e-06  9.24713e-06 -0.000693605 
         -50      3.55472   -2.988e-06  9.09091e-06 -0.000693623 
         -50      3.61273 -2.94204e-06  8.93743e-06  -0.00069364 
         -50      3.67125 -2.90026e-06  8.78748e-06 -0.000693657 
         -50      3.73025 -2.86642e-06  8.64267e-06 -0.000693674 
         -50      3.78967 -2.82703e-06  8.50024e-06 -0.000693689 
         -50      3.84961 -2.78199e-06  8.35573e-06 -0.000693703 
         -50      3.90996 -2.73866e-06  8.21097e-06 -0.000693717 
         -50      3.97084 -2.68805e-06  8.06192e-06 -0.000693733 
         -50      4.03214 -2.63849e-06  7.91664e-06  -0.00069375 
         -50      4.09395 -2.59089e-06  7.77505e-06 -0.000693767 
         -50      4.15624 -2.54494e-06  7.63657e-06 -0.000693783 
         -50      4.21895 -2.50035e-06  7.50071e-06 -0.000693798 
         -50      4.28217  -2.4568e-06   7.3668e-06 -0.000693813 
         -50      4.34582 -2.41412e-06  7.23466e-06 -0.000693827 
         -50      4.40998 -2.37205e-06  7.10384e-06 -0.000693841 
         -50      4.47457 -2.33051e-06  6.97437e-06 -0.000693855 
         -50      4.53968  -2.2893e-06  6.84598e-06 -0.000693868 
         -50      4.60525 -2.24836e-06  6.71878e-06 -0.000693881 
         -50      4.67125 -2.20765e-06  6.59296e-06 -0.000693893 
         -50      4.73777 -2.16706e-06  6.46846e-06 -0.000693906 
         -50       4.8047 -2.12662e-06  6.34565e-06 -0.000693918 
         -50      4.87216 -2.08627e-06  6.22454e-06  -0.00069393 
         -50      4.94003 -2.04607e-06  6.10554e-06 -0.000693942 
         -50      5.00843   -2.006e-06  5.98865e-06 -0.000693954 
         -50      5.07724 -1.96617e-06  5.87419e-06 -0.000693965 
         -50      5.14658 -1.92658e-06  5.76205e-06 -0.000693977 
         -50      5.21639 -1.88737e-06  5.65229e-06 -0.000693989 
         -50      5.28661  -1.8487e-06   5.5448e-06    -0.000694 
         -50      5.35736 -1.81067e-06  5.43903e-06 -0.000694011 
         -50      5.42852 -1.77354e-06  5.33457e-06 -0.000694021 
         -50      5.50021 -1.73753e-06  5.23036e-06  -0.00069403 
         -50      5.57231 -1.70301e-06  5.12537e-06 -0.000694039 
         -50      5.64493 -1.67034e-06  5.01783e-06 -0.000694046 
         -50      5.71803  -1.6335e-06  4.92393e-06 -0.000694057 
         -50      5.79154 -1.59864e-06  4.82737e-06 -0.000694066 
         -50      5.86558 -1.56541e-06  4.72967e-06 -0.000694074 
         -50      5.94003 -1.53358e-06  4.63225e-06 -0.000694081 
         -50      6.01501  -1.5028e-06  4.53583e-06 -0.000694088 
         -50       6.0904  -1.4728e-06  4.44111e-06 -0.000694095 
         -50      6.16632 -1.44316e-06  4.34821e-06 -0.000694101 
         -50      6.24271 -1.41356e-06  4.25725e-06 -0.000694107 
         -50       6.3195 -1.38372e-06  4.16821e-06 -0.000694114 
         -50      6.39683 -1.35341e-06  4.08075e-06  -0.00069412 
         -50      6.47457 -1.32271e-06  3.99476e-06 -0.000694125 
         -50      6.55284 -1.29194e-06  3.90988e-06 -0.000694131 
         -50      6.63152 -1.26204e-06  3.82608e-06 -0.000694135 
         -50      6.71073 -1.23458e-06  3.74319e-06 -0.000694139 
         -50      6.79034 -1.20726e-06  3.66287e-06 -0.000694143 
         -50      6.87049 -1.18009e-06  3.58458e-06 -0.000694147 
         -50      6.95111 -1.15418e-06  3.50777e-06  -0.00069415 
         -50      7.03214 -1.12919e-06  3.43245e-06 -0.000694153 
         -50       7.1137 -1.10478e-06  3.35844e-06 -0.000694155 
         -50      7.19566 -1.08072e-06   3.2858e-06 -0.000694157 
         -50      7.27816 -1.05676e-06  3.21433e-06 -0.000694158 
         -50      7.36106 -1.03278e-06  3.14411e-06 -0.000694159 
         -50      7.44451 -1.00864e-06  3.07498e-06  -0.00069416 
         -50      7.52842 -9.84334e-07  3.00699e-06  -0.00069416 
         -50      7.61273 -9.59948e-07  2.94019e-06 -0.000694161 
         -50      7.69758 -9.35591e-07  2.87449e-06  -0.00069416 
         -50      7.78283 -9.11555e-07  2.81005e-06  -0.00069416 
         -50      7.86862 -8.88166e-07   2.7468e-06 -0.000694159 
         -50      7.95481 -8.65951e-07  2.68493e-06 -0.000694158 
         -50      8.04155 -8.45505e-07   2.6244e-06 -0.000694156 
         -50      8.12868 -8.25402e-07  2.56457e-06 -0.000694154 
         -50      8.21635 -8.06103e-07  2.50599e-06 -0.000694152 
         -50      8.30449 -7.87465e-07  2.44864e-06 -0.000694149 
         -50      8.39303  -7.6899e-07  2.39238e-06 -0.000694146 
         -50      8.48211 -7.50294e-07  2.33703e-06 -0.000694142 
         -50      8.57159 -7.31199e-07  2.28271e-06 -0.000694138 
         -50      8.66161  -7.1161e-07  2.22941e-06 -0.000694133 
         -50      8.75203 -6.91627e-07  2.17738e-06 -0.000694128 
         -50      8.84299  -6.7142e-07  2.12667e-06 -0.000694123 
         -50      8.93443 -6.51336e-07  2.07741e-06 -0.000694117 
         -50      9.02626 -6.31845e-07  2.02961e-06 -0.000694111 
         -50      9.11863 -6.13496e-07  1.98294e-06 -0.000694104 
         -50      9.21139 -5.97026e-07  1.93695e-06 -0.000694097 
         -50      9.30471 -5.83243e-07  1.89059e-06 -0.000694089 
         -50      9.39841 -5.66743e-07  1.84701e-06 -0.000694082 
         -50      9.49267 -5.47146e-07  1.80569e-06 -0.000694073 
         -50      9.58739 -5.29714e-07  1.76334e-06 -0.000694065 
         -50      9.68251 -5.13866e-07  1.72084e-06 -0.000694056 
         -50      9.77817  -4.9909e-07  1.67879e-06 -0.000694047 
         -50      9.87422 -4.85011e-07   1.6377e-06 -0.000694038 
         -50      9.97083 -4.71298e-07   1.5978e-06 -0.000694028 
         -50      10.0678 -4.57745e-07  1.55932e-06 -0.000694018 
         -50      10.1654 -4.44174e-07  1.52225e-06 -0.000694007 
         -50      10.2633 -4.30518e-07  1.48659e-06 -0.000693996 
         -50      10.3618 -4.16721e-07  1.45217e-06 -0.000693985 
         -50      10.4607 -4.02811e-07  1.41889e-06 -0.000693973 
         -50      10.5601 -3.88856e-07  1.38656e-06 -0.000693961 
         -50        10.66 -3.74925e-07  1.35496e-06 -0.000693948 
         -50      10.7603 -3.61152e-07  1.32395e-06 -0.000693935 
         -50      10.8611 -3.47643e-07  1.29332e-06 -0.000693921 
         -50      10.9623 -3.34552e-07    1.263e-06 -0.000693907 
         -50      11.0641 -3.21987e-07  1.23285e-06 -0.000693892 
         -50      11.1663 -3.10072e-07  1.20287e-06 -0.000693877 
         -50       11.269 -2.98908e-07   1.1731e-06 -0.000693862 
         -50      11.3721 -2.88535e-07  1.14357e-06 -0.000693846 
         -50      11.4757 -2.78986e-07  1.11445e-06  -0.00069383 
         -50      11.5798 -2.70211e-07  1.08583e-06 -0.000693813 
         -50      11.6844 -2.62126e-07  1.05794e-06 -0.000693796 
         -50      11.7894 -2.54552e-07  1.03092e-06 -0.000693779 
         -50       11.895 -2.47248e-07  1.00493e-06 -0.000693761 
         -50      12.0009 -2.39884e-07  9.80088e-07 -0.000693744 
         -50      12.1073 -2.32016e-07  9.56362e-07 -0.000693726 
         -50      12.2142  -2.2312e-07  9.33644e-07 -0.000693707 
         -50      12.3216 -2.12531e-07  9.11562e-07 -0.000693689 
         -50      12.4294 -1.99495e-07  8.89558e-07  -0.00069367 
         -50      12.5378 -1.83093e-07  8.66677e-07 -0.000693651 
         -50      12.6465 -1.68533e-07  8.41186e-07 -0.000693632 
         -50      12.7558 -1.65421e-07  8.16541e-07 -0.000693611 
         -50      12.8656 -1.53817e-07  7.98614e-07 -0.000693588 
         -50      12.9757 -1.44917e-07  7.81449e-07 -0.000693565 
         -50      13.0864 -1.39811e-07  7.64664e-07 -0.000693543 
         -50      13.1975 -1.33036e-07  7.46984e-07 -0.000693521 
         -50      13.3092  -1.2546e-07  7.28814e-07 -0.000693499 
         -50      13.4212  -1.1774e-07  7.10525e-07 -0.000693476 
         -50      13.5338 -1.10315e-07  6.92354e-07 -0.000693454 
         -50      13.6468  -1.0347e-07  6.74512e-07  -0.00069343 
         -50      13.7603 -9.73524e-08  6.57149e-07 -0.000693407 
         -50      13.8743   -9.198e-08  6.40325e-07 -0.000693383 
         -50      13.9886 -8.73054e-08   6.2411e-07 -0.000693358 
         -50      14.1036 -8.32044e-08  6.08489e-07 -0.000693333 
         -50      14.2189 -7.95293e-08  5.93472e-07 -0.000693308 
         -50      14.3348 -7.61036e-08  5.79001e-07 -0.000693281 
         -50       14.451 -7.27646e-08  5.65053e-07 -0.000693255 
         -50      14.5678 -6.93569e-08  5.51557e-07 -0.000693228 
         -50      14.6851 -6.57642e-08  5.38472e-07   -0.0006932 
         -50      14.8028 -6.19126e-08  5.25763e-07 -0.000693172 
         -50       14.921  -5.7766e-08  5.13371e-07 -0.000693144 
         -50      15.0396 -5.33516e-08  5.01288e-07 -0.000693115 
         -50      15.1588 -4.87313e-08   4.8948e-07 -0.000693086 
         -50      15.2783 -4.40236e-08  4.77963e-07 -0.000693056 
         -50      15.3984  -3.9363e-08  4.66727e-07 -0.000693026 
         -50       15.519 -3.49104e-08    4.558e-07 -0.000692996 
         -50        15.64 -3.08178e-08  4.45213e-07 -0.000692965 
         -50      15.7615 -2.71919e-08  4.34972e-07 -0.000692935 
         -50      15.8834 -2.40804e-08  4.25107e-07 -0.000692904 
         -50      16.0058 -2.14077e-08    4.156e-07 -0.000692873 
         -50      16.1286 -1.89452e-08  4.06435e-07 -0.000692841 
         -50       16.252 -1.62366e-08  3.97523e-07 -0.000692809 
         -50      16.3759 -1.25455e-08  3.88741e-07 -0.000692777 
         -50      16.5002 -6.77902e-09  3.79888e-07 -0.000692744 
         -50       16.625  2.61447e-09  3.70644e-07 -0.000692711 
         -50      16.7501  9.21547e-09  3.62994e-07 -0.000692677 
         -50      16.8759  1.07214e-08   3.5694e-07 -0.000692642 
         -50       17.002  1.49832e-08  3.49868e-07 -0.000692608 
         -50      17.1287  2.05057e-08  3.42087e-07 -0.000692572 
         -50      17.2557  2.61734e-08   3.3388e-07 -0.000692537 
         -50      17.3834  3.12316e-08  3.25461e-07 -0.000692501 
         -50      17.5115   3.5207e-08  3.17021e-07 -0.000692464 
         -50      17.6399  3.78776e-08  3.08713e-07 -0.000692427 
         -50       17.769  3.92289e-08  3.00638e-07  -0.00069239 
         -50      17.8984  3.93977e-08  2.92891e-07 -0.000692353 
         -50      18.0284  3.86385e-08  2.85514e-07 -0.000692314 
         -50      18.1587  3.72823e-08  2.78551e-07 -0.000692276 
         -50      18.2896   3.5696e-08  2.72002e-07 -0.000692237 
         -50       18.421  3.42543e-08  2.65864e-07 -0.000692198 
         -50      18.5528  3.33061e-08  2.60118e-07 -0.000692158 
         -50      18.6851  3.31453e-08  2.54717e-07 -0.000692118 
         -50      18.8178  3.39918e-08   2.4962e-07 -0.000692078 
         -50      18.9511  3.59736e-08  2.44757e-07 -0.000692037 
         -50      19.0847  3.91066e-08  2.40066e-07 -0.000691996 
         -50      19.2189     4.33e-08  2.35458e-07 -0.000691954 
         -50      19.3535  4.83334e-08  2.30852e-07 -0.000691913 
         -50      19.4886   5.3887e-08  2.26139e-07  -0.00069187 
         -50      19.6242  5.95246e-08  2.21212e-07 -0.000691827 
         -50      19.7602  6.47232e-08   2.1595e-07 -0.000691784 
         -50      19.8968  6.89102e-08  2.10206e-07 -0.000691741 
         -50      20.0337   7.1469e-08   2.0383e-07 -0.000691696 
         -50      20.1712  7.18052e-08  1.96631e-07 -0.000691652 
         -50      20.3091  6.91389e-08  1.90197e-07 -0.000691607 
         -50      20.4475  6.45975e-08   1.8907e-07 -0.000691562 
         -50      20.5864  6.04407e-08  1.87426e-07 -0.000691517 
         -50      20.7257  5.71364e-08  1.85164e-07 -0.000691472 
         -50      20.8655  5.54584e-08  1.82221e-07 -0.000691426 
         -50      21.0058   5.6573e-08  1.78593e-07  -0.00069138 
         -50      21.1465  6.21109e-08  1.74314e-07 -0.000691334 
         -50      21.2877   7.3481e-08   1.6961e-07 -0.000691286 
         -50      21.4294  8.16797e-08  1.65982e-07 -0.000691236 
         -50      21.5716  8.86437e-08  1.63518e-07 -0.000691186 
         -50      21.7142  9.72061e-08  1.61816e-07 -0.000691136 
         -50      21.8573  1.07298e-07  1.60427e-07 -0.000691086 
         -50      22.0008  1.08622e-07  1.57751e-07 -0.000691036 
         -50      22.1449  9.39477e-08  1.53449e-07 -0.000690989 
         -50      22.2893  8.30362e-08  1.50365e-07  -0.00069094 
         -50      22.4344  7.59388e-08  1.48245e-07  -0.00069089 
         -50      22.5797  7.24535e-08  1.46808e-07  -0.00069084 
         -50      22.7257  7.21409e-08   1.4576e-07 -0.000690789 
         -50      22.8721  7.44098e-08  1.44827e-07 -0.000690736 
         -50      23.0189  7.85564e-08  1.43777e-07 -0.000690684 
         -50      23.1663  8.38367e-08   1.4243e-07  -0.00069063 
         -50       23.314  8.94919e-08  1.40681e-07 -0.000690576 
         -50      23.4623  9.48253e-08  1.38491e-07 -0.000690522 
         -50       23.611  9.92125e-08  1.35905e-07 -0.000690467 
         -50      23.7602   1.0217e-07  1.33029e-07 -0.000690412 
         -50        23.91  1.03365e-07  1.30029e-07 -0.000690357 
         -50        24.06  1.02658e-07  1.27109e-07 -0.000690301 
         -50      24.2107   1.0012e-07  1.24476e-07 -0.000690245 
         -50      24.3617  9.60536e-08  1.22317e-07 -0.000690189 
         -50      24.5133  9.09937e-08  1.20742e-07 -0.000690133 
         -50      24.6653  8.57308e-08  1.19743e-07 -0.000690076 
         -50      24.8178    8.128e-08  1.19123e-07 -0.000690018 
         -50      24.9708  7.88988e-08  1.18428e-07 -0.000689961 
         -50      25.1242  8.00473e-08  1.16864e-07 -0.000689902 
         -50      25.2781  8.63704e-08  1.13199e-07 -0.000689843 
         -50      25.4324  9.96431e-08  1.05668e-07 -0.000689782 
         -50      25.5873  1.14275e-07  1.06853e-07 -0.000689723 
         -50      25.7426   1.1804e-07  1.09335e-07 -0.000689664 
         -50      25.8984  1.14359e-07  1.11027e-07 -0.000689604 
         -50      26.0546  1.06592e-07  1.11336e-07 -0.000689544 
         -50      26.2114   9.7559e-08  1.10148e-07 -0.000689484 
         -50      26.3686   8.9445e-08  1.07762e-07 -0.000689422 
         -50      26.5262  8.37097e-08  1.04784e-07  -0.00068936 
         -50      26.6844  8.10777e-08  1.01967e-07 -0.000689298 
         -50      26.8429   8.1635e-08  1.00034e-07 -0.000689235 
         -50       27.002  8.49596e-08  9.94087e-08 -0.000689171 
         -50      27.1615  9.03447e-08  9.99339e-08 -0.000689107 
         -50      27.3216  9.71289e-08  1.00511e-07 -0.000689042 
         -50      27.4821  1.05071e-07  9.86853e-08 -0.000688978 
         -50       27.643  1.06311e-07  9.68371e-08 -0.000688913 
         -50      27.8044  1.03006e-07  9.70612e-08 -0.000688848 
         -50      27.9663   9.9779e-08  9.72184e-08 -0.000688782 
         -50      28.1287  9.68299e-08  9.73005e-08 -0.000688716 
         -50      28.2914  9.43034e-08  9.73015e-08  -0.00068865 
         -50      28.4548  9.22787e-08  9.72182e-08 -0.000688583 
         -50      28.6185   9.0794e-08  9.70495e-08 -0.000688516 
         -50      28.7828  8.98413e-08  9.67961e-08 -0.000688449 
         -50      28.9475  8.93839e-08  9.64605e-08 -0.000688381 
         -50      29.1126  8.93579e-08  9.60467e-08 -0.000688313 
         -50      29.2784  8.96815e-08  9.55586e-08 -0.000688244 
         -50      29.4444  9.02604e-08  9.50025e-08 -0.000688175 
         -50       29.611   9.0996e-08  9.43834e-08 -0.000688106 
         -50       29.778  9.17877e-08  9.37085e-08 -0.000688036 
         -50      29.9456  9.25421e-08  9.29831e-08 -0.000687966 
         -50      30.1137  9.31733e-08  9.22139e-08 -0.000687896 
         -50      30.2821  9.36092e-08  9.14077e-08 -0.000687825 
         -50      30.4511  9.37951e-08  9.05691e-08 -0.000687754 
         -50      30.6204  9.36946e-08  8.97048e-08 -0.000687682 
         -50      30.7903  9.32922e-08  8.88185e-08  -0.00068761 
         -50      30.9606  9.25949e-08  8.79163e-08 -0.000687538 
         -50      31.1315  9.16301e-08  8.70009e-08 -0.000687465 
         -50      31.3028  9.04478e-08  8.60772e-08 -0.000687392 
         -50      31.4745   8.9118e-08  8.51495e-08 -0.000687319 
         -50      31.6468  8.77242e-08  8.42204e-08 -0.000687245 
         -50      31.8194   8.6367e-08  8.32953e-08  -0.00068717 
         -50      31.9926  8.51509e-08   8.2377e-08 -0.000687096 
         -50      32.1662  8.41859e-08  8.14725e-08 -0.000687021 
         -50      32.3404  8.35736e-08  8.05864e-08 -0.000686946 
         -50      32.5149  8.34038e-08  7.97283e-08  -0.00068687 
         -50        32.69  8.37411e-08  7.89067e-08 -0.000686794 
         -50      32.8655  8.46157e-08   7.8135e-08 -0.000686717 
         -50      33.0414  8.60076e-08  7.74293e-08  -0.00068664 
         -50       33.218  8.78378e-08  7.68083e-08 -0.000686563 
         -50      33.3948  8.99438e-08  7.62972e-08 -0.000686485 
         -50      33.5723  9.20728e-08   7.5925e-08 -0.000686407 
         -50        33.75  9.38498e-08  7.57283e-08 -0.000686328 
         -50      33.9284  9.47687e-08  7.57505e-08 -0.000686249 
         -50      34.1073  9.41577e-08  7.60437e-08 -0.000686169 
         -50      34.2865   9.1165e-08  7.66689e-08 -0.000686089 
         -50      34.4663  8.47178e-08  7.76994e-08 -0.000686008 
         -50      34.6465  7.35176e-08  7.92181e-08 -0.000685927 
         -50      34.8272  5.59624e-08  8.13256e-08 -0.000685845 
         -50      35.0083  4.87242e-08  8.11367e-08 -0.000685764 
         -50        35.19  5.23895e-08  7.77286e-08 -0.000685682 
         -50      35.3721   5.6257e-08  7.26107e-08 -0.000685599 
         -50      35.5546   6.5288e-08  6.77431e-08 -0.000685516 
         -50      35.7377  8.56304e-08    7.337e-08 -0.000685435 
         -50      35.9211  9.56105e-08  7.78118e-08 -0.000685353 
         -50      36.1052  9.77422e-08  8.12144e-08 -0.000685271 
         -50      36.2895  9.42205e-08  8.36991e-08 -0.000685188 
         -50      36.4745  8.69613e-08  8.53844e-08 -0.000685105 
         -50      36.6598  7.76352e-08  8.63691e-08 -0.000685022 
         -50      36.8457  6.78064e-08  8.65572e-08 -0.000684938 
         -50      37.0321  6.10519e-08  8.36251e-08 -0.000684854 
         -50      37.2188  5.51979e-08  8.12541e-08 -0.000684769 
         -50      37.4062  5.07268e-08    7.934e-08 -0.000684684 
         -50      37.5938  4.79238e-08  7.77963e-08 -0.000684598 
         -50      37.7821  4.68827e-08  7.65415e-08 -0.000684511 
         -50      37.9707  4.75555e-08  7.55082e-08 -0.000684425 
         -50      38.1599  4.97752e-08  7.46346e-08 -0.000684338 
         -50      38.3496  5.32845e-08  7.38701e-08  -0.00068425 
         -50      38.5396  5.77594e-08  7.31717e-08 -0.000684162 
         -50      38.7302  6.28495e-08  7.25024e-08 -0.000684075 
         -50      38.9211  6.81751e-08  7.18344e-08 -0.000683986 
         -50      39.1127  7.33793e-08  7.11444e-08 -0.000683898 
         -50      39.3046  7.81135e-08  7.04168e-08 -0.000683809 
         -50      39.4971  8.20859e-08  6.96398e-08  -0.00068372 
         -50      39.6899  8.50459e-08  6.88085e-08 -0.000683631 
         -50      39.8833  8.68192e-08  6.79203e-08 -0.000683542 
         -50      40.0772   8.7298e-08  6.69785e-08 -0.000683452 
         -50      40.2714  8.64568e-08  6.59905e-08 -0.000683362 
         -50      40.4663  8.43483e-08  6.49643e-08 -0.000683272 
         -50      40.6615  8.11086e-08  6.39145e-08 -0.000683181 
         -50      40.8573   7.6939e-08  6.28546e-08 -0.000683091 
         -50      41.0534  7.21172e-08  6.18042e-08    -0.000683 
         -50      41.2501   6.6959e-08  6.07813e-08 -0.000682908 
         -50      41.4473  6.18266e-08  5.98083e-08 -0.000682817 
         -50      41.6448  5.70968e-08  5.89094e-08 -0.000682725 
         -50      41.8429  5.31229e-08  5.81078e-08 -0.000682632 
         -50      42.0414  5.02305e-08  5.74309e-08  -0.00068254 
         -50      42.2405  4.86572e-08  5.69051e-08 -0.000682447 
         -50      42.4399  4.85308e-08  5.65598e-08 -0.000682354 
         -50      42.6399  4.98138e-08  5.64245e-08 -0.000682261 
         -50      42.8404  5.22557e-08  5.65309e-08 -0.000682167 
         -50      43.0412  5.53322e-08  5.69115e-08 -0.000682073 
         -50      43.2426  5.81936e-08  5.76013e-08 -0.000681979 
         -50      43.4444  5.95803e-08  5.86357e-08 -0.000681884 
         -50      43.6467  5.77608e-08  6.00548e-08  -0.00068179 
         -50      43.8494  5.04476e-08  6.18975e-08 -0.000681695 
         -50      44.0527  3.46883e-08  6.42109e-08 -0.000681601 
         -50      44.2563  7.63566e-09    6.692e-08 -0.000681506 
         -50      44.4606  9.95197e-09  6.50571e-08 -0.000681412 
         -50      44.6653  1.43965e-08  6.38488e-08 -0.000681317 
         -50      44.8704  2.03724e-08  6.32159e-08 -0.000681221 
         -50       45.076  2.72387e-08   6.3084e-08 -0.000681125 
         -50       45.282  3.43216e-08  6.33734e-08 -0.000681029 
         -50      45.4886  4.10056e-08  6.39858e-08 -0.000680932 
         -50      45.6955  4.67402e-08   6.4789e-08 -0.000680835 
         -50       45.903  5.11333e-08  6.56074e-08 -0.000680738 
         -50      46.1111  5.39712e-08  6.62028e-08  -0.00068064 
         -50      46.3194   5.5293e-08  6.62634e-08 -0.000680543 
         -50      46.5283  5.54468e-08  6.53871e-08 -0.000680445 
         -50      46.7376  5.51424e-08  6.30681e-08 -0.000680348 
         -50      46.9475  5.55164e-08   5.8673e-08  -0.00068025 
         -50      47.1577  5.81925e-08  5.14408e-08 -0.000680153 
         -50      47.3685  6.19633e-08  4.90604e-08 -0.000680055 
         -50      47.5798  6.03765e-08  5.73153e-08 -0.000679955 
         -50      47.7914  5.73539e-08  6.23662e-08 -0.000679856 
         -50      48.0037  5.36444e-08  6.48213e-08 -0.000679757 