Variables = x, y, u, v, p

Zone, I=20800, F=POINT
         -50            0            0            0  0.000205999 
         -50     0.000234  8.47618e-08  1.29568e-10  0.000205999 
         -50     0.000939  3.39504e-07   5.0888e-10  0.000205999 
         -50     0.002113  7.61602e-07  1.10525e-09  0.000205999 
         -50     0.003759  1.34891e-06  1.87231e-09  0.000205999 
         -50     0.005872  2.09504e-06  2.75021e-09  0.000205999 
         -50     0.008457  2.99571e-06  3.68115e-09  0.000205999 
         -50      0.01151  4.04196e-06  4.60863e-09  0.000205998 
         -50     0.015036  5.22635e-06  5.49013e-09  0.000205998 
         -50     0.019031  6.53681e-06  6.29662e-09  0.000205998 
         -50     0.023493  7.96046e-06  7.02036e-09  0.000205998 
         -50     0.028429  9.48577e-06  7.67975e-09  0.000205998 
         -50     0.033831  1.10952e-05  8.32261e-09  0.000205998 
         -50     0.039706  1.27744e-05  9.04045e-09  0.000205998 
         -50     0.046047  1.45042e-05  9.97743e-09  0.000205999 
         -50     0.052863  1.62687e-05  1.13454e-08  0.000205999 
         -50      0.06015   1.8048e-05  1.34169e-08  0.000205999 
         -50       0.0679   1.9821e-05  1.64822e-08  0.000205999 
         -50     0.076126  2.15717e-05  2.07408e-08     0.000206 
         -50     0.084816  2.32789e-05  2.60372e-08     0.000206 
         -50     0.093982  2.49269e-05  3.35561e-08  0.000206001 
         -50     0.103611  2.64967e-05  4.35886e-08  0.000206002 
         -50     0.113718  2.79753e-05   5.5519e-08  0.000206002 
         -50     0.124286  2.93463e-05  6.90694e-08  0.000206003 
         -50     0.135333  3.06003e-05  8.43368e-08  0.000206005 
         -50      0.14685  3.17266e-05  1.01607e-07  0.000206006 
         -50     0.158827  3.27175e-05  1.21223e-07  0.000206008 
         -50     0.171284  3.35699e-05  1.43478e-07   0.00020601 
         -50     0.184201  3.42802e-05  1.68401e-07  0.000206012 
         -50     0.197599  3.48495e-05  1.96006e-07  0.000206014 
         -50     0.211455  3.52789e-05  2.26583e-07  0.000206016 
         -50     0.225792  3.55734e-05  2.61955e-07  0.000206019 
         -50       0.2406  3.57389e-05  3.07302e-07  0.000206022 
         -50     0.255865  3.57849e-05  3.68412e-07  0.000206026 
         -50     0.271613  3.57218e-05  4.32462e-07  0.000206028 
         -50     0.287818  3.55599e-05   5.0358e-07  0.000206032 
         -50     0.304506  3.53101e-05  5.86715e-07  0.000206037 
         -50      0.32165  3.49834e-05  6.87821e-07  0.000206041 
         -50     0.339278  3.45891e-05  8.14068e-07  0.000206046 
         -50     0.357377  3.41369e-05  9.72786e-07   0.00020605 
         -50      0.37593   3.3636e-05  1.17086e-06  0.000206053 
         -50     0.394968   3.3094e-05  1.41448e-06  0.000206054 
         -50     0.414461  3.25196e-05  1.70681e-06  0.000206055 
         -50      0.43444  3.19202e-05  2.04828e-06  0.000206054 
         -50     0.454872  3.13048e-05  2.43314e-06  0.000206051 
         -50     0.475791  3.06812e-05  2.85006e-06  0.000206048 
         -50     0.497163  3.00591e-05   3.2777e-06  0.000206043 
         -50     0.519021  2.94466e-05  3.68534e-06  0.000206038 
         -50      0.54135  2.88527e-05  4.02845e-06  0.000206034 
         -50     0.564131  2.82847e-05  4.24764e-06   0.00020603 
         -50       0.5874  2.77452e-05  4.26689e-06  0.000206029 
         -50     0.611121  2.72364e-05  4.01101e-06  0.000206033 
         -50      0.63533  2.67821e-05   3.8641e-06  0.000206053 
         -50      0.65999  2.63462e-05  3.83581e-06  0.000206065 
         -50     0.685139  2.59389e-05  3.91186e-06  0.000206071 
         -50     0.710759  2.55669e-05  4.07737e-06   0.00020607 
         -50     0.736828  2.52323e-05  4.31674e-06  0.000206064 
         -50     0.763387  2.49325e-05  4.61477e-06  0.000206053 
         -50     0.790396  2.46616e-05  4.95566e-06  0.000206039 
         -50     0.817896  2.44096e-05  5.32496e-06  0.000206023 
         -50     0.845843  2.41645e-05  5.70796e-06  0.000206004 
         -50     0.874283  2.39111e-05  6.09227e-06  0.000205984 
         -50      0.90317  2.36338e-05  6.46572e-06  0.000205963 
         -50     0.932551  2.33156e-05  6.81915e-06  0.000205941 
         -50     0.962401  2.29407e-05   7.1445e-06  0.000205918 
         -50     0.992697  2.24948e-05  7.43617e-06  0.000205895 
         -50      1.02349  2.19651e-05  7.69176e-06  0.000205872 
         -50      1.05472  2.13436e-05   7.9106e-06  0.000205847 
         -50      1.08645  2.06249e-05  8.09543e-06  0.000205823 
         -50      1.11863  1.98104e-05  8.25091e-06  0.000205796 
         -50       1.1513  1.89045e-05  8.38452e-06  0.000205768 
         -50      1.18444  1.79189e-05  8.50526e-06  0.000205738 
         -50      1.21802  1.68704e-05  8.62337e-06  0.000205705 
         -50      1.25211  1.57776e-05  8.74974e-06  0.000205668 
         -50      1.28663  1.46645e-05  8.89396e-06  0.000205627 
         -50      1.32165   1.3552e-05  9.06373e-06  0.000205581 
         -50      1.35712  1.24606e-05  9.26188e-06   0.00020553 
         -50      1.39308  1.13995e-05   9.4852e-06  0.000205474 
         -50      1.42951  1.03656e-05  9.72039e-06  0.000205412 
         -50      1.46638   9.3342e-06  9.94111e-06  0.000205346 
         -50      1.50375  8.24591e-06  1.01044e-05  0.000205276 
         -50      1.54156  7.18773e-06  1.01874e-05  0.000205207 
         -50      1.57987  6.14465e-06  1.02664e-05  0.000205136 
         -50      1.61863  5.11621e-06  1.03418e-05  0.000205062 
         -50      1.65788  4.10528e-06  1.04124e-05  0.000204985 
         -50      1.69757  3.11782e-06  1.04771e-05  0.000204906 
         -50      1.73776   2.1562e-06   1.0535e-05  0.000204825 
         -50      1.77842  1.22491e-06  1.05851e-05  0.000204741 
         -50      1.81952  3.28098e-07  1.06266e-05  0.000204654 
         -50      1.86113  -5.3267e-07  1.06592e-05  0.000204566 
         -50      1.90316 -1.35327e-06  1.06823e-05  0.000204476 
         -50      1.94571 -2.13267e-06  1.06956e-05  0.000204384 
         -50      1.98869 -2.86761e-06  1.06991e-05   0.00020429 
         -50      2.03217 -3.55765e-06  1.06927e-05  0.000204195 
         -50      2.07612 -4.20094e-06  1.06765e-05  0.000204098 
         -50      2.12051 -4.79614e-06  1.06508e-05     0.000204 
         -50       2.1654 -5.34369e-06  1.06159e-05  0.000203901 
         -50      2.21073 -5.84259e-06  1.05722e-05  0.000203801 
         -50      2.25656 -6.29384e-06  1.05202e-05    0.0002037 
         -50      2.30283 -6.69732e-06  1.04606e-05  0.000203598 
         -50       2.3496 -7.05454e-06  1.03938e-05  0.000203496 
         -50      2.39685  -7.3664e-06  1.03207e-05  0.000203393 
         -50      2.44452 -7.63421e-06   1.0242e-05   0.00020329 
         -50      2.49271 -7.86016e-06  1.01581e-05  0.000203186 
         -50      2.54132 -8.04594e-06  1.00701e-05  0.000203083 
         -50      2.59044 -8.19406e-06  9.97834e-06   0.00020298 
         -50         2.64 -8.30672e-06  9.88364e-06  0.000202877 
         -50      2.69006 -8.38665e-06  9.78642e-06  0.000202774 
         -50      2.74056 -8.43641e-06  9.68732e-06  0.000202671 
         -50      2.79156 -8.45882e-06  9.58663e-06  0.000202569 
         -50      2.84304 -8.45662e-06  9.48474e-06  0.000202467 
         -50      2.89494 -8.43262e-06  9.38199e-06  0.000202367 
         -50      2.94735  -8.3895e-06  9.27837e-06  0.000202266 
         -50       3.0002 -8.32999e-06  9.17411e-06  0.000202167 
         -50      3.05355 -8.25651e-06  9.06904e-06  0.000202068 
         -50      3.10733 -8.17151e-06  8.96324e-06   0.00020197 
         -50      3.16163 -8.07703e-06  8.85644e-06  0.000201873 
         -50      3.21639 -7.97503e-06  8.74859e-06  0.000201777 
         -50      3.27158 -7.86728e-06  8.63969e-06  0.000201682 
         -50      3.32729 -7.75496e-06  8.52955e-06  0.000201587 
         -50      3.38342 -7.63933e-06  8.41849e-06  0.000201494 
         -50      3.44007 -7.52095e-06  8.30667e-06  0.000201401 
         -50      3.49714 -7.40046e-06  8.19494e-06   0.00020131 
         -50      3.55472  -7.2778e-06  8.08419e-06  0.000201219 
         -50      3.61273 -7.15301e-06  7.97622e-06  0.000201129 
         -50      3.67125  -7.0255e-06  7.87315e-06   0.00020104 
         -50      3.73025 -6.89477e-06  7.77822e-06  0.000200952 
         -50      3.78967 -6.76662e-06  7.67699e-06  0.000200866 
         -50      3.84961  -6.6431e-06  7.56845e-06  0.000200781 
         -50      3.90996 -6.52217e-06  7.46017e-06  0.000200698 
         -50      3.97084 -6.39871e-06  7.35355e-06  0.000200613 
         -50      4.03214 -6.27717e-06  7.24922e-06   0.00020053 
         -50      4.09395 -6.15787e-06  7.14626e-06  0.000200447 
         -50      4.15624 -6.04071e-06  7.04422e-06  0.000200366 
         -50      4.21895 -5.92563e-06  6.94282e-06  0.000200286 
         -50      4.28217 -5.81233e-06  6.84171e-06  0.000200207 
         -50      4.34582  -5.7009e-06  6.74096e-06  0.000200129 
         -50      4.40998 -5.59109e-06  6.64041e-06  0.000200053 
         -50      4.47457 -5.48302e-06  6.54031e-06  0.000199978 
         -50      4.53968 -5.37648e-06  6.44064e-06  0.000199903 
         -50      4.60525 -5.27152e-06  6.34164e-06   0.00019983 
         -50      4.67125  -5.1682e-06  6.24358e-06  0.000199758 
         -50      4.73777  -5.0663e-06  6.14646e-06  0.000199687 
         -50       4.8047 -4.96597e-06  6.05058e-06  0.000199617 
         -50      4.87216 -4.86701e-06  5.95589e-06  0.000199547 
         -50      4.94003 -4.76954e-06   5.8626e-06  0.000199479 
         -50      5.00843 -4.67338e-06  5.77054e-06  0.000199412 
         -50      5.07724 -4.57866e-06  5.67983e-06  0.000199345 
         -50      5.14658 -4.48523e-06   5.5902e-06  0.000199279 
         -50      5.21639 -4.39319e-06   5.5016e-06  0.000199214 
         -50      5.28661 -4.30269e-06  5.41391e-06   0.00019915 
         -50      5.35736 -4.21372e-06  5.32686e-06  0.000199087 
         -50      5.42852 -4.12663e-06  5.24047e-06  0.000199025 
         -50      5.50021 -4.04161e-06  5.15458e-06  0.000198965 
         -50      5.57231 -3.95926e-06  5.06946e-06  0.000198905 
         -50      5.64493 -3.88008e-06  4.98533e-06  0.000198847 
         -50      5.71803 -3.79213e-06  4.90224e-06  0.000198788 
         -50      5.79154 -3.70743e-06  4.82016e-06   0.00019873 
         -50      5.86558 -3.62596e-06  4.73872e-06  0.000198673 
         -50      5.94003 -3.54766e-06  4.65794e-06  0.000198617 
         -50      6.01501 -3.47196e-06  4.57773e-06  0.000198562 
         -50       6.0904 -3.39836e-06  4.49831e-06  0.000198509 
         -50      6.16632 -3.32601e-06  4.41972e-06  0.000198456 
         -50      6.24271 -3.25427e-06  4.34217e-06  0.000198404 
         -50       6.3195 -3.18258e-06  4.26588e-06  0.000198353 
         -50      6.39683 -3.11049e-06  4.19078e-06  0.000198303 
         -50      6.47457 -3.03814e-06  4.11697e-06  0.000198253 
         -50      6.55284 -2.96607e-06  4.04418e-06  0.000198205 
         -50      6.63152 -2.89579e-06  3.97218e-06  0.000198157 
         -50      6.71073 -2.82958e-06  3.90033e-06  0.000198109 
         -50      6.79034 -2.76813e-06  3.83047e-06  0.000198063 
         -50      6.87049 -2.70899e-06  3.76237e-06  0.000198018 
         -50      6.95111 -2.65175e-06   3.6953e-06  0.000197973 
         -50      7.03214 -2.59581e-06  3.62923e-06  0.000197929 
         -50       7.1137 -2.54061e-06  3.56396e-06  0.000197886 
         -50      7.19566 -2.48592e-06  3.49944e-06  0.000197844 
         -50      7.27816 -2.43149e-06  3.43544e-06  0.000197802 
         -50      7.36106 -2.37735e-06  3.37195e-06   0.00019776 
         -50      7.44451 -2.32351e-06   3.3088e-06   0.00019772 
         -50      7.52842 -2.27019e-06  3.24605e-06   0.00019768 
         -50      7.61273 -2.21768e-06  3.18385e-06  0.000197641 
         -50      7.69758 -2.16618e-06  3.12231e-06  0.000197602 
         -50      7.78283 -2.11607e-06  3.06185e-06  0.000197565 
         -50      7.86862 -2.06755e-06  3.00287e-06  0.000197527 
         -50      7.95481  -2.0209e-06  2.94607e-06   0.00019749 
         -50      8.04155 -1.97611e-06  2.89217e-06  0.000197454 
         -50      8.12868 -1.93276e-06  2.83509e-06  0.000197419 
         -50      8.21635 -1.89072e-06  2.77766e-06  0.000197384 
         -50      8.30449 -1.84961e-06  2.72162e-06   0.00019735 
         -50      8.39303 -1.80903e-06  2.66697e-06  0.000197316 
         -50      8.48211 -1.76862e-06  2.61357e-06  0.000197283 
         -50      8.57159 -1.72825e-06  2.56146e-06  0.000197251 
         -50      8.66161 -1.68783e-06  2.51051e-06  0.000197218 
         -50      8.75203 -1.64752e-06  2.46077e-06  0.000197187 
         -50      8.84299 -1.60751e-06  2.41212e-06  0.000197156 
         -50      8.93443 -1.56824e-06  2.36455e-06  0.000197125 
         -50      9.02626 -1.53028e-06  2.31806e-06  0.000197095 
         -50      9.11863 -1.49427e-06  2.27251e-06  0.000197065 
         -50      9.21139 -1.46109e-06  2.22788e-06  0.000197036 
         -50      9.30471 -1.43165e-06  2.18399e-06  0.000197008 
         -50      9.39841  -1.3993e-06  2.14024e-06   0.00019698 
         -50      9.49267 -1.36277e-06   2.0971e-06  0.000196952 
         -50      9.58739 -1.32866e-06  2.05514e-06  0.000196924 
         -50      9.68251 -1.29667e-06  2.01426e-06  0.000196897 
         -50      9.77817 -1.26644e-06  1.97426e-06   0.00019687 
         -50      9.87422 -1.23772e-06   1.9351e-06  0.000196844 
         -50      9.97083 -1.21017e-06  1.89661e-06  0.000196818 
         -50      10.0678 -1.18358e-06  1.85877e-06  0.000196792 
         -50      10.1654 -1.15766e-06  1.82143e-06  0.000196767 
         -50      10.2633 -1.13227e-06  1.78462e-06  0.000196742 
         -50      10.3618  -1.1072e-06  1.74821e-06  0.000196717 
         -50      10.4607 -1.08234e-06  1.71223e-06  0.000196693 
         -50      10.5601 -1.05763e-06  1.67669e-06  0.000196669 
         -50        10.66 -1.03299e-06  1.64155e-06  0.000196645 
         -50      10.7603 -1.00846e-06  1.60687e-06  0.000196621 
         -50      10.8611 -9.84044e-07  1.57265e-06  0.000196598 
         -50      10.9623 -9.59856e-07  1.53899e-06  0.000196575 
         -50      11.0641 -9.35965e-07  1.50588e-06  0.000196552 
         -50      11.1663 -9.12524e-07  1.47342e-06  0.000196529 
         -50       11.269 -8.89698e-07  1.44169e-06  0.000196507 
         -50      11.3721 -8.67604e-07   1.4107e-06  0.000196485 
         -50      11.4757  -8.4642e-07  1.38056e-06  0.000196463 
         -50      11.5798 -8.26232e-07  1.35125e-06  0.000196441 
         -50      11.6844 -8.07149e-07  1.32284e-06   0.00019642 
         -50      11.7894 -7.89154e-07  1.29528e-06  0.000196399 
         -50       11.895  -7.7219e-07  1.26853e-06  0.000196379 
         -50      12.0009 -7.56081e-07  1.24252e-06  0.000196358 
         -50      12.1073 -7.40469e-07  1.21706e-06  0.000196338 
         -50      12.2142 -7.24868e-07  1.19197e-06  0.000196319 
         -50      12.3216 -7.08526e-07  1.16691e-06    0.0001963 
         -50      12.4294 -6.90486e-07   1.1415e-06  0.000196281 
         -50      12.5378 -6.69428e-07  1.11521e-06  0.000196262 
         -50      12.6465 -6.50217e-07  1.08784e-06  0.000196243 
         -50      12.7558 -6.44867e-07  1.05814e-06  0.000196223 
         -50      12.8656 -6.21114e-07  1.04302e-06  0.000196205 
         -50      12.9757 -6.01706e-07  1.02429e-06  0.000196187 
         -50      13.0864 -5.88239e-07  1.00247e-06  0.000196167 
         -50      13.1975 -5.74795e-07  9.80535e-07  0.000196147 
         -50      13.3092 -5.61687e-07  9.58723e-07  0.000196127 
         -50      13.4212 -5.49154e-07   9.3728e-07  0.000196108 
         -50      13.5338 -5.37295e-07  9.16331e-07  0.000196088 
         -50      13.6468  -5.2616e-07  8.96007e-07  0.000196069 
         -50      13.7603 -5.15733e-07  8.76395e-07   0.00019605 
         -50      13.8743 -5.05928e-07  8.57502e-07  0.000196032 
         -50      13.9886 -4.96655e-07  8.39362e-07  0.000196013 
         -50      14.1036  -4.8778e-07   8.2193e-07  0.000195995 
         -50      14.2189 -4.79188e-07  8.05195e-07  0.000195977 
         -50      14.3348 -4.70744e-07  7.89075e-07  0.000195959 
         -50       14.451 -4.62356e-07  7.73533e-07  0.000195941 
         -50      14.5678 -4.53927e-07  7.58473e-07  0.000195923 
         -50      14.6851 -4.45408e-07  7.43837e-07  0.000195906 
         -50      14.8028 -4.36786e-07  7.29563e-07  0.000195888 
         -50       14.921  -4.2806e-07  7.15564e-07   0.00019587 
         -50      15.0396  -4.1929e-07  7.01806e-07  0.000195853 
         -50      15.1588 -4.10538e-07  6.88217e-07  0.000195835 
         -50      15.2783 -4.01916e-07  6.74786e-07  0.000195818 
         -50      15.3984 -3.93523e-07   6.6147e-07    0.0001958 
         -50       15.519 -3.85475e-07  6.48272e-07  0.000195782 
         -50        15.64 -3.77871e-07  6.35212e-07  0.000195765 
         -50      15.7615 -3.70751e-07  6.22289e-07  0.000195747 
         -50      15.8834 -3.64116e-07  6.09557e-07  0.000195729 
         -50      16.0058 -3.57849e-07  5.97041e-07  0.000195711 
         -50      16.1286 -3.51724e-07   5.8481e-07  0.000195694 
         -50       16.252 -3.45327e-07  5.72896e-07  0.000195676 
         -50      16.3759 -3.38042e-07   5.6136e-07  0.000195658 
         -50      16.5002 -3.28992e-07   5.5025e-07   0.00019564 
         -50       16.625 -3.16954e-07   5.3957e-07  0.000195623 
         -50      16.7501  -3.1122e-07  5.28821e-07  0.000195605 
         -50      16.8759 -3.10941e-07  5.18232e-07  0.000195586 
         -50       17.002 -3.05034e-07  5.08301e-07  0.000195568 
         -50      17.1287 -2.96078e-07   4.9876e-07   0.00019555 
         -50      17.2557 -2.86034e-07  4.89438e-07  0.000195532 
         -50      17.3834 -2.76275e-07  4.80195e-07  0.000195514 
         -50      17.5115 -2.67717e-07   4.7096e-07  0.000195496 
         -50      17.6399 -2.60865e-07  4.61708e-07  0.000195477 
         -50       17.769 -2.55876e-07  4.52422e-07  0.000195459 
         -50      17.8984  -2.5266e-07  4.43143e-07  0.000195441 
         -50      18.0284 -2.50915e-07  4.33898e-07  0.000195422 
         -50      18.1587 -2.50214e-07  4.24757e-07  0.000195403 
         -50      18.2896  -2.5005e-07  4.15765e-07  0.000195385 
         -50       18.421 -2.49891e-07  4.06989e-07  0.000195366 
         -50      18.5528 -2.49236e-07  3.98486e-07  0.000195347 
         -50      18.6851 -2.47646e-07  3.90285e-07  0.000195328 
         -50      18.8178 -2.44793e-07  3.82425e-07  0.000195309 
         -50      18.9511 -2.40476e-07  3.74901e-07   0.00019529 
         -50      19.0847 -2.34658e-07  3.67714e-07  0.000195271 
         -50      19.2189 -2.27456e-07   3.6082e-07  0.000195252 
         -50      19.3535  -2.1918e-07  3.54174e-07  0.000195233 
         -50      19.4886 -2.10282e-07  3.47691e-07  0.000195214 
         -50      19.6242 -2.01389e-07  3.41283e-07  0.000195194 
         -50      19.7602 -1.93248e-07  3.34846e-07  0.000195175 
         -50      19.8968 -1.86679e-07  3.28251e-07  0.000195156 
         -50      20.0337 -1.82554e-07  3.21386e-07  0.000195137 
         -50      20.1712 -1.81706e-07  3.14122e-07  0.000195118 
         -50      20.3091 -1.84094e-07  3.07146e-07  0.000195099 
         -50      20.4475 -1.86262e-07  3.02621e-07  0.000195079 
         -50      20.5864 -1.88692e-07  2.98171e-07  0.000195058 
         -50      20.7257 -1.89879e-07  2.93766e-07  0.000195038 
         -50      20.8655 -1.87799e-07  2.89244e-07  0.000195018 
         -50      21.0058 -1.79807e-07  2.84285e-07  0.000194997 
         -50      21.1465 -1.62498e-07  2.78308e-07  0.000194976 
         -50      21.2877 -1.50836e-07  2.73757e-07  0.000194956 
         -50      21.4294 -1.55123e-07  2.69807e-07  0.000194937 
         -50      21.5716 -1.50514e-07  2.64356e-07  0.000194917 
         -50      21.7142 -1.37053e-07  2.59089e-07  0.000194897 
         -50      21.8573 -1.17727e-07  2.54181e-07  0.000194877 
         -50      22.0008 -1.09549e-07  2.49613e-07  0.000194855 
         -50      22.1449 -1.26706e-07  2.46548e-07  0.000194833 
         -50      22.2893 -1.40567e-07  2.43493e-07  0.000194811 
         -50      22.4344  -1.5029e-07  2.40363e-07   0.00019479 
         -50      22.5797 -1.55492e-07    2.371e-07  0.000194768 
         -50      22.7257 -1.56236e-07  2.33657e-07  0.000194747 
         -50      22.8721 -1.52919e-07  2.30014e-07  0.000194726 
         -50      23.0189 -1.46226e-07  2.26177e-07  0.000194705 
         -50      23.1663 -1.37028e-07  2.22161e-07  0.000194683 
         -50       23.314  -1.2635e-07  2.18017e-07  0.000194662 
         -50      23.4623 -1.15242e-07  2.13798e-07   0.00019464 
         -50       23.611 -1.04774e-07  2.09585e-07  0.000194618 
         -50      23.7602 -9.58959e-08  2.05454e-07  0.000194596 
         -50        23.91 -8.94249e-08  2.01492e-07  0.000194573 
         -50        24.06 -8.59459e-08  1.97777e-07  0.000194551 
         -50      24.2107 -8.57414e-08  1.94361e-07  0.000194527 
         -50      24.3617 -8.87391e-08  1.91277e-07  0.000194504 
         -50      24.5133 -9.44459e-08  1.88507e-07   0.00019448 
         -50      24.6653 -1.01868e-07  1.85981e-07  0.000194456 
         -50      24.8178 -1.09483e-07  1.83543e-07  0.000194432 
         -50      24.9708 -1.15145e-07  1.80949e-07  0.000194408 
         -50      25.1242 -1.16055e-07  1.77835e-07  0.000194385 
         -50      25.2781 -1.08701e-07  1.73687e-07  0.000194363 
         -50      25.4324 -8.88294e-08  1.67832e-07  0.000194342 
         -50      25.5873 -6.98882e-08  1.69047e-07  0.000194318 
         -50      25.7426 -6.42381e-08  1.70649e-07  0.000194294 
         -50      25.8984 -6.71466e-08  1.71502e-07   0.00019427 
         -50      26.0546 -7.45238e-08   1.7144e-07  0.000194247 
         -50      26.2114 -8.30356e-08  1.70416e-07  0.000194223 
         -50      26.3686 -9.02634e-08  1.68422e-07  0.000194199 
         -50      26.5262 -9.47891e-08   1.6547e-07  0.000194175 
         -50      26.6844 -9.61316e-08  1.61604e-07   0.00019415 
         -50      26.8429 -9.45135e-08  1.56996e-07  0.000194126 
         -50       27.002 -9.05042e-08  1.52053e-07  0.000194101 
         -50      27.1615  -8.4503e-08   1.4764e-07  0.000194075 
         -50      27.3216 -7.60175e-08   1.4531e-07  0.000194051 
         -50      27.4821 -6.28156e-08   1.4765e-07  0.000194026 
         -50       27.643 -5.97041e-08  1.46168e-07  0.000194001 
         -50      27.8044 -6.38601e-08  1.41023e-07  0.000193975 
         -50      27.9663 -6.62753e-08  1.37379e-07   0.00019395 
         -50      28.1287 -6.72774e-08  1.34928e-07  0.000193924 
         -50      28.2914 -6.71618e-08  1.33402e-07  0.000193898 
         -50      28.4548 -6.61981e-08  1.32561e-07  0.000193872 
         -50      28.6185 -6.46294e-08  1.32202e-07  0.000193847 
         -50      28.7828 -6.26667e-08  1.32145e-07  0.000193821 
         -50      28.9475 -6.04965e-08  1.32241e-07  0.000193795 
         -50      29.1126 -5.82774e-08  1.32367e-07  0.000193769 
         -50      29.2784 -5.61349e-08  1.32423e-07  0.000193742 
         -50      29.4444 -5.41735e-08  1.32332e-07  0.000193716 
         -50       29.611 -5.24646e-08   1.3204e-07  0.000193689 
         -50       29.778 -5.10594e-08   1.3151e-07  0.000193663 
         -50      29.9456 -4.99797e-08  1.30721e-07  0.000193636 
         -50      30.1137 -4.92272e-08  1.29671e-07  0.000193609 
         -50      30.2821 -4.87815e-08   1.2837e-07  0.000193581 
         -50      30.4511 -4.86013e-08  1.26838e-07  0.000193554 
         -50      30.6204 -4.86298e-08  1.25108e-07  0.000193526 
         -50      30.7903 -4.87949e-08  1.23218e-07  0.000193498 
         -50      30.9606  -4.9013e-08  1.21215e-07   0.00019347 
         -50      31.1315 -4.91929e-08  1.19145e-07  0.000193442 
         -50      31.3028 -4.92381e-08  1.17062e-07  0.000193413 
         -50      31.4745 -4.90523e-08  1.15019e-07  0.000193385 
         -50      31.6468 -4.85426e-08  1.13061e-07  0.000193356 
         -50      31.8194 -4.76261e-08  1.11239e-07  0.000193327 
         -50      31.9926 -4.62318e-08  1.09588e-07  0.000193299 
         -50      32.1662 -4.43121e-08  1.08144e-07   0.00019327 
         -50      32.3404 -4.18403e-08  1.06926e-07  0.000193241 
         -50      32.5149 -3.88294e-08  1.05948e-07  0.000193211 
         -50        32.69 -3.53231e-08  1.05205e-07  0.000193182 
         -50      32.8655 -3.14202e-08   1.0468e-07  0.000193153 
         -50      33.0414 -2.72759e-08  1.04336e-07  0.000193124 
         -50       33.218 -2.31001e-08  1.04118e-07  0.000193095 
         -50      33.3948 -1.91891e-08   1.0395e-07  0.000193066 
         -50      33.5723 -1.59104e-08  1.03733e-07  0.000193037 
         -50        33.75 -1.37366e-08  1.03342e-07  0.000193008 
         -50      33.9284 -1.32371e-08  1.02627e-07   0.00019298 
         -50      34.1073 -1.51048e-08  1.01409e-07  0.000192951 
         -50      34.2865 -2.01543e-08  9.94816e-08  0.000192923 
         -50      34.4663 -2.93559e-08  9.66014e-08  0.000192894 
         -50      34.6465 -4.38127e-08  9.25008e-08  0.000192866 
         -50      34.8272 -6.48375e-08   8.6866e-08  0.000192838 
         -50      35.0083  -6.9798e-08  8.12372e-08  0.000192808 
         -50        35.19  -5.7687e-08  7.79532e-08  0.000192776 
         -50      35.3721 -4.23998e-08  7.73456e-08  0.000192745 
         -50      35.5546  -2.1235e-08  8.13246e-08  0.000192713 
         -50      35.7377  -2.6083e-09  8.98939e-08  0.000192682 
         -50      35.9211  4.83153e-09  9.66327e-08   0.00019265 
         -50      36.1052  3.83723e-09  1.01692e-07  0.000192618 
         -50      36.2895 -3.21792e-09  1.05183e-07  0.000192587 
         -50      36.4745 -1.43108e-08   1.0721e-07  0.000192555 
         -50      36.6598 -2.77046e-08  1.07852e-07  0.000192524 
         -50      36.8457 -4.16016e-08  1.06807e-07  0.000192492 
         -50      37.0321  -4.8217e-08  9.94262e-08  0.000192461 
         -50      37.2188 -5.30949e-08  9.30998e-08   0.00019243 
         -50      37.4062 -5.58718e-08   8.7797e-08  0.000192399 
         -50      37.5938 -5.63843e-08  8.34804e-08  0.000192367 
         -50      37.7821 -5.46522e-08  8.00764e-08  0.000192336 
         -50      37.9707 -5.08412e-08  7.75077e-08  0.000192305 
         -50      38.1599 -4.52221e-08  7.56751e-08  0.000192274 
         -50      38.3496 -3.81571e-08  7.44779e-08  0.000192242 
         -50      38.5396 -3.00686e-08  7.38092e-08  0.000192211 
         -50      38.7302 -2.13885e-08  7.35599e-08  0.000192179 
         -50      38.9211   -1.258e-08  7.36251e-08  0.000192147 
         -50      39.1127 -4.06302e-09  7.39048e-08  0.000192115 
         -50      39.3046  3.75106e-09  7.43064e-08  0.000192083 
         -50      39.4971  1.05288e-08  7.47486e-08  0.000192051 
         -50      39.6899    1.598e-08  7.51608e-08  0.000192018 
         -50      39.8833  1.99115e-08  7.54873e-08  0.000191986 
         -50      40.0772  2.22017e-08  7.56857e-08  0.000191953 
         -50      40.2714  2.28252e-08  7.57294e-08   0.00019192 
         -50      40.4663  2.18496e-08   7.5607e-08  0.000191887 
         -50      40.6615  1.94333e-08  7.53222e-08  0.000191854 
         -50      40.8573  1.58142e-08  7.48922e-08  0.000191821 
         -50      41.0534  1.13146e-08  7.43482e-08  0.000191788 
         -50      41.2501  6.30581e-09  7.37305e-08  0.000191754 
         -50      41.4473  1.21354e-09   7.3089e-08  0.000191721 
         -50      41.6448 -3.51503e-09  7.24791e-08  0.000191688 
         -50      41.8429 -7.44994e-09  7.19556e-08  0.000191655 
         -50      42.0414 -1.01856e-08  7.15725e-08  0.000191621 
         -50      42.2405 -1.14017e-08  7.13739e-08  0.000191588 
         -50      42.4399 -1.08889e-08  7.13906e-08  0.000191554 
         -50      42.6399 -8.60413e-09  7.16328e-08  0.000191521 
         -50      42.8404 -4.72393e-09  7.20823e-08  0.000191487 
         -50      43.0412  2.91681e-10  7.26839e-08  0.000191454 
         -50      43.2426  5.65062e-09  7.33385e-08   0.00019142 
         -50      43.4444  1.01284e-08  7.38896e-08  0.000191386 
         -50      43.6467  1.20189e-08  7.41164e-08  0.000191352 
         -50      43.8494  9.02585e-09  7.37185e-08  0.000191317 
         -50      44.0527 -1.82704e-09  7.23042e-08  0.000191282 
         -50      44.2563 -2.37178e-08  6.94114e-08  0.000191247 
         -50      44.4606 -2.59988e-08  6.72686e-08  0.000191213 
         -50      44.6653 -2.36504e-08  6.56969e-08  0.000191179 
         -50      44.8704 -1.77071e-08  6.46543e-08  0.000191145 
         -50       45.076 -9.30548e-09  6.41135e-08  0.000191111 
         -50       45.282  3.37689e-10  6.40512e-08  0.000191077 
         -50      45.4886  1.00375e-08  6.44275e-08  0.000191043 
         -50      45.6955  1.86484e-08  6.51703e-08  0.000191009 
         -50       45.903  2.51912e-08  6.61596e-08  0.000190974 
         -50      46.1111  2.88737e-08   6.7206e-08  0.000190939 
         -50      46.3194   2.9196e-08  6.80345e-08  0.000190905 
         -50      46.5283  2.60189e-08   6.8267e-08   0.00019087 
         -50      46.7376   1.9649e-08  6.74004e-08  0.000190835 
         -50      46.9475  1.09032e-08  6.47855e-08    0.0001908 
         -50      47.1577  1.23406e-09  5.96152e-08  0.000190765 
         -50      47.3685  1.04541e-10  5.66733e-08   0.00019073 
         -50      47.5798  8.72312e-09  6.12131e-08  0.000190694 
         -50      47.7914  1.35273e-08  6.44785e-08  0.000190658 
         -50      48.0037  1.57921e-08  6.66392e-08  0.000190623 