Variables = x, y, u, v, p

Zone, I=6400, F=POINT
         -50            0            0            0     -7.50777 
         -50     0.000471 -1.29247e-05 -5.43957e-10     -7.50777 
         -50     0.001884 -4.57854e-05 -2.12113e-09     -7.50777 
         -50     0.004239 -8.39583e-05 -4.60499e-09     -7.50777 
         -50     0.007537 -0.000111885 -7.88581e-09     -7.50777 
         -50     0.011776 -0.000121401 -1.19413e-08     -7.50777 
         -50     0.016958 -0.000115934 -1.68348e-08     -7.50777 
         -50     0.023081  -0.00010738 -2.25827e-08     -7.50777 
         -50      0.03015 -0.000106739 -2.89671e-08     -7.50777 
         -50     0.038157 -0.000114443 -3.53849e-08     -7.50777 
         -50     0.047107 -0.000119566  -4.1001e-08     -7.50777 
         -50     0.056999 -0.000113932 -4.52652e-08     -7.50777 
         -50     0.067837 -0.000110986 -4.87094e-08     -7.50777 
         -50     0.079614 -0.000120883 -5.31506e-08     -7.50777 
         -50     0.092332  -0.00011503  -5.8121e-08     -7.50777 
         -50     0.105992 -0.000116535 -6.45815e-08     -7.50777 
         -50       0.1206 -0.000116313 -7.45185e-08     -7.50777 
         -50     0.136145  -0.00011617 -8.97689e-08     -7.50777 
         -50     0.152631 -0.000116553 -1.12585e-07     -7.50777 
         -50     0.170067 -0.000116999 -1.45445e-07     -7.50777 
         -50     0.188438 -0.000116956 -1.90587e-07     -7.50777 
         -50     0.207751 -0.000116576 -2.49406e-07     -7.50776 
         -50     0.228006 -0.000116659 -3.21337e-07     -7.50776 
         -50     0.249212 -0.000116335 -4.02318e-07     -7.50776 
         -50     0.271351 -0.000116138 -4.87441e-07     -7.50776 
         -50     0.294433 -0.000115836 -5.61708e-07     -7.50776 
         -50     0.318456 -0.000115424 -6.08676e-07     -7.50776 
         -50     0.343432 -0.000114958 -6.21961e-07     -7.50776 
         -50     0.369339 -0.000114469 -6.04923e-07     -7.50775 
         -50     0.396189 -0.000113964  -5.6906e-07     -7.50775 
         -50     0.423981 -0.000113438 -5.30922e-07     -7.50775 
         -50     0.452726 -0.000112886 -5.07723e-07     -7.50775 
         -50     0.482403 -0.000112312 -5.11901e-07     -7.50774 
         -50     0.513021 -0.000111733 -5.45032e-07     -7.50774 
         -50     0.544594 -0.000111177 -5.92129e-07     -7.50774 
         -50     0.577096 -0.000110654 -6.17242e-07     -7.50773 
         -50     0.610541 -0.000110106 -5.65001e-07     -7.50773 
         -50     0.644927 -0.000109617 -5.36936e-07     -7.50772 
         -50      0.68027 -0.000109117 -5.64414e-07     -7.50772 
         -50     0.716541 -0.000108622 -6.38327e-07     -7.50771 
         -50     0.753754 -0.000108146 -7.48015e-07      -7.5077 
         -50     0.791909 -0.000107703 -8.81798e-07      -7.5077 
         -50     0.831022 -0.000107303  -1.0277e-06     -7.50769 
         -50     0.871061 -0.000106956 -1.17399e-06     -7.50768 
         -50     0.912043 -0.000106666 -1.31038e-06     -7.50767 
         -50     0.953966 -0.000106436 -1.42864e-06     -7.50766 
         -50     0.996849 -0.000106265 -1.52353e-06     -7.50765 
         -50      1.04066 -0.000106149 -1.59339e-06     -7.50764 
         -50      1.08541 -0.000106083 -1.64087e-06     -7.50763 
         -50      1.13112 -0.000106058 -1.67293e-06     -7.50762 
         -50      1.17775 -0.000106063 -1.70059e-06     -7.50761 
         -50      1.22533 -0.000106089 -1.73797e-06     -7.50759 
         -50      1.27384 -0.000106124 -1.80045e-06     -7.50758 
         -50      1.32333 -0.000106164 -1.90173e-06     -7.50756 
         -50      1.37373 -0.000106205 -2.04932e-06     -7.50755 
         -50      1.42507 -0.000106252 -2.23856e-06     -7.50753 
         -50      1.47736 -0.000106324 -2.44425e-06     -7.50751 
         -50      1.53061 -0.000106133 -2.44083e-06     -7.50749 
         -50      1.58478 -0.000105686 -2.35763e-06     -7.50747 
         -50      1.63989  -0.00010535 -2.42904e-06     -7.50745 
         -50      1.69595 -0.000105087 -2.60118e-06     -7.50743 
         -50      1.75297 -0.000104865   -2.827e-06      -7.5074 
         -50      1.81091 -0.000104654 -3.06645e-06     -7.50738 
         -50      1.86979 -0.000104431 -3.28732e-06     -7.50735 
         -50      1.92964 -0.000104178 -3.46519e-06     -7.50732 
         -50       1.9904 -0.000103882 -3.58327e-06     -7.50729 
         -50      2.05211 -0.000103538 -3.63272e-06     -7.50726 
         -50      2.11476 -0.000103144 -3.61206e-06     -7.50723 
         -50      2.17838 -0.000102704 -3.52673e-06      -7.5072 
         -50      2.24291 -0.000102228 -3.38863e-06     -7.50716 
         -50      2.30839  -0.00010173 -3.21506e-06     -7.50713 
         -50       2.3748 -0.000101229 -3.02791e-06     -7.50709 
         -50      2.44219 -0.000100745 -2.85239e-06     -7.50705 
         -50      2.51049 -0.000100304 -2.71602e-06     -7.50701 
         -50      2.57974 -9.99306e-05  -2.6468e-06     -7.50697 
         -50      2.64993 -9.96497e-05 -2.67197e-06     -7.50692 
         -50      2.72108 -9.94855e-05 -2.81643e-06     -7.50688 
         -50      2.79315 -9.94588e-05 -3.10085e-06     -7.50683 
         -50      2.86617 -9.95857e-05 -3.54032e-06     -7.50678 
         -50      2.94012 -9.98755e-05  -4.1427e-06     -7.50672 
         -50      3.01505 -0.000100329 -4.90748e-06     -7.50667 
         -50      3.09089 -0.000100935 -5.82326e-06     -7.50661 
         -50      3.16767 -0.000101671 -6.86856e-06     -7.50655 
         -50      3.24542 -0.000102497 -8.01059e-06     -7.50649 
         -50      3.32409 -0.000103355 -9.20339e-06     -7.50643 
         -50       3.4037 -0.000104167 -1.03911e-05     -7.50636 
         -50      3.48425 -0.000104831 -1.15073e-05      -7.5063 
         -50      3.56577  -0.00010522 -1.24775e-05     -7.50623 
         -50       3.6482 -0.000105177 -1.32211e-05     -7.50615 
         -50      3.73158 -0.000104516 -1.36576e-05     -7.50608 
         -50       3.8159 -0.000104309   -1.416e-05       -7.506 
         -50      3.90119 -0.000104557 -1.42825e-05     -7.50592 
         -50       3.9874 -0.000105145 -1.51564e-05     -7.50584 
         -50      4.07454 -0.000105579 -1.60777e-05     -7.50575 
         -50      4.16263 -0.000105845 -1.68397e-05     -7.50566 
         -50      4.25169 -0.000105998 -1.74735e-05     -7.50557 
         -50      4.34166 -0.000106071 -1.79957e-05     -7.50548 
         -50      4.43258 -0.000106084 -1.84151e-05     -7.50538 
         -50      4.52447 -0.000106047 -1.87368e-05     -7.50528 
         -50      4.61726 -0.000105967 -1.89662e-05     -7.50518 
         -50        4.711 -0.000105854 -1.91128e-05     -7.50507 
         -50      4.80569 -0.000105721 -1.91917e-05     -7.50496 
         -50      4.90135 -0.000105587 -1.92242e-05     -7.50485 
         -50      4.99791 -0.000105477 -1.92357e-05     -7.50473 
         -50      5.09542  -0.00010542 -1.92521e-05     -7.50461 
         -50      5.19387 -0.000105436  -1.9292e-05     -7.50449 
         -50       5.2933 -0.000105537 -1.93571e-05     -7.50436 
         -50      5.39364 -0.000105702  -1.9417e-05     -7.50423 
         -50      5.49491 -0.000105864 -1.93905e-05      -7.5041 
         -50      5.59713 -0.000105884 -1.91213e-05     -7.50396 
         -50      5.70033  -0.00010638  -1.8811e-05     -7.50382 
         -50      5.80443 -0.000107038 -1.86153e-05     -7.50367 
         -50      5.90948 -0.000107298 -1.84722e-05     -7.50352 
         -50      6.01551 -0.000107332  -1.8477e-05     -7.50337 
         -50      6.12244 -0.000107254 -1.85959e-05     -7.50321 
         -50      6.23031  -0.00010714 -1.87355e-05     -7.50305 
         -50      6.33912 -0.000107044 -1.88148e-05     -7.50288 
         -50      6.44892 -0.000107016 -1.88374e-05     -7.50271 
         -50      6.55962 -0.000107122 -1.89635e-05     -7.50254 
         -50      6.67126  -0.00010746 -1.95802e-05     -7.50236 
         -50      6.78384 -0.000107778 -2.02593e-05     -7.50218 
         -50      6.89741  -0.00010786 -2.01515e-05     -7.50199 
         -50      7.01187 -0.000108049 -2.01989e-05      -7.5018 
         -50      7.12728 -0.000108252 -2.02883e-05      -7.5016 
         -50      7.24363  -0.00010841 -2.03464e-05      -7.5014 
         -50      7.36097 -0.000108502 -2.03339e-05     -7.50119 
         -50       7.4792 -0.000108532 -2.02393e-05     -7.50098 
         -50      7.59838 -0.000108525 -2.00731e-05     -7.50077 
         -50      7.71854 -0.000108514 -1.98629e-05     -7.50054 
         -50       7.8396 -0.000108529 -1.96494e-05     -7.50032 
         -50      7.96161 -0.000108587 -1.94828e-05     -7.50009 
         -50      8.08455 -0.000108643 -1.94014e-05     -7.49985 
         -50      8.20849 -0.000108627  -1.9441e-05     -7.49961 
         -50      8.33332 -0.000108644 -1.95942e-05     -7.49936 
         -50      8.45909 -0.000108657  -1.9757e-05     -7.49911 
         -50       8.5858  -0.00010865 -1.99012e-05     -7.49885 
         -50      8.71351  -0.00010862 -2.00515e-05     -7.49859 
         -50       8.8421 -0.000108568 -2.02543e-05     -7.49832 
         -50      8.97164 -0.000108491 -2.05408e-05     -7.49804 
         -50      9.10212 -0.000108366 -2.08818e-05     -7.49776 
         -50       9.2336 -0.000108136 -2.11331e-05     -7.49747 
         -50      9.36596 -0.000107804 -2.11222e-05     -7.49718 
         -50      9.49927 -0.000108015 -2.16856e-05     -7.49688 
         -50      9.63352 -0.000108026  -2.1941e-05     -7.49658 
         -50      9.76877 -0.000107949 -2.20579e-05     -7.49627 
         -50       9.9049 -0.000107861 -2.21468e-05     -7.49595 
         -50       10.042 -0.000107805 -2.22699e-05     -7.49563 
         -50      10.1801 -0.000107799 -2.24519e-05      -7.4953 
         -50       10.319  -0.00010784 -2.26886e-05     -7.49496 
         -50      10.4589 -0.000107915 -2.29577e-05     -7.49462 
         -50      10.5998 -0.000107998  -2.3227e-05     -7.49427 
         -50      10.7416 -0.000108063 -2.34619e-05     -7.49392 
         -50      10.8843 -0.000108086 -2.36329e-05     -7.49355 
         -50       11.028 -0.000108048 -2.37205e-05     -7.49319 
         -50      11.1726 -0.000107937 -2.37197e-05     -7.49281 
         -50      11.3182 -0.000107755 -2.36415e-05     -7.49243 
         -50      11.4647 -0.000107514 -2.35129e-05     -7.49204 
         -50      11.6122 -0.000107236  -2.3375e-05     -7.49164 
         -50      11.7605 -0.000106954  -2.3277e-05     -7.49124 
         -50      11.9099 -0.000106707 -2.32683e-05     -7.49083 
         -50      12.0602 -0.000106534 -2.33864e-05     -7.49041 
         -50      12.2114 -0.000106464 -2.36417e-05     -7.48999 
         -50      12.3636 -0.000106513 -2.39972e-05     -7.48955 
         -50      12.5167 -0.000106663 -2.43435e-05     -7.48911 
         -50      12.6707 -0.000107133  -2.4244e-05     -7.48867 
         -50      12.8257   -0.0001077 -2.42211e-05     -7.48821 
         -50      12.9817 -0.000107143  -2.4016e-05     -7.48775 
         -50      13.1386 -0.000106621 -2.43423e-05     -7.48728 
         -50      13.2964 -0.000106334 -2.47173e-05      -7.4868 
         -50      13.4551 -0.000106181 -2.51006e-05     -7.48632 
         -50      13.6149 -0.000106089 -2.54656e-05     -7.48583 
         -50      13.7755 -0.000106004 -2.57964e-05     -7.48533 
         -50      13.9371 -0.000105892  -2.6086e-05     -7.48482 
         -50      14.0996 -0.000105735 -2.63343e-05      -7.4843 
         -50      14.2631 -0.000105527 -2.65455e-05     -7.48378 
         -50      14.4275 -0.000105273 -2.67264e-05     -7.48324 
         -50      14.5928 -0.000104986 -2.68853e-05      -7.4827 
         -50      14.7592 -0.000104683 -2.70302e-05     -7.48215 
         -50      14.9264 -0.000104382 -2.71682e-05      -7.4816 
         -50      15.0946 -0.000104103 -2.73048e-05     -7.48103 
         -50      15.2637 -0.000103859 -2.74438e-05     -7.48046 
         -50      15.4338  -0.00010366 -2.75878e-05     -7.47987 
         -50      15.6048 -0.000103506  -2.7739e-05     -7.47928 
         -50      15.7767 -0.000103389 -2.79009e-05     -7.47869 
         -50      15.9496 -0.000103286 -2.80804e-05     -7.47808 
         -50      16.1235 -0.000103165 -2.82913e-05     -7.47746 
         -50      16.2982 -0.000102974  -2.8557e-05     -7.47684 
         -50      16.4739  -0.00010265 -2.89165e-05      -7.4762 
         -50      16.6506 -0.000102111 -2.94296e-05     -7.47556 
         -50      16.8282 -0.000101914 -2.97322e-05     -7.47491 
         -50      17.0068 -0.000101909 -3.00531e-05     -7.47425 
         -50      17.1862 -0.000101895 -3.04514e-05     -7.47358 
         -50      17.3667 -0.000101843 -3.08744e-05     -7.47291 
         -50      17.5481 -0.000101738 -3.12855e-05     -7.47222 
         -50      17.7304 -0.000101577 -3.16626e-05     -7.47152 
         -50      17.9136 -0.000101366 -3.19932e-05     -7.47082 
         -50      18.0979 -0.000101117 -3.22726e-05     -7.47011 
         -50       18.283 -0.000100845 -3.25004e-05     -7.46939 
         -50      18.4691 -0.000100566 -3.26789e-05     -7.46865 
         -50      18.6561 -0.000100296 -3.28106e-05     -7.46791 
         -50      18.8441 -0.000100044 -3.28973e-05     -7.46717 
         -50       19.033  -9.9816e-05 -3.29383e-05     -7.46641 
         -50      19.2228 -9.96079e-05 -3.29308e-05     -7.46564 
         -50      19.4136 -9.94061e-05 -3.28696e-05     -7.46486 
         -50      19.6054 -9.91856e-05 -3.27483e-05     -7.46408 
         -50       19.798 -9.89089e-05 -3.25608e-05     -7.46328 
         -50      19.9917 -9.85243e-05 -3.23038e-05     -7.46248 
         -50      20.1862 -9.79664e-05 -3.19804e-05     -7.46166 
         -50      20.3818 -9.74571e-05 -3.22202e-05     -7.46084 
         -50      20.5782 -9.72297e-05 -3.28595e-05     -7.46001 
         -50      20.7756 -9.71552e-05 -3.32584e-05     -7.45917 
         -50       20.974 -9.72872e-05 -3.33076e-05     -7.45832 
         -50      21.1732 -9.76793e-05 -3.28554e-05     -7.45746 
         -50      21.3734 -9.75608e-05 -3.33225e-05     -7.45659 
         -50      21.5745 -9.70734e-05 -3.36413e-05     -7.45571 
         -50      21.7767 -9.65467e-05 -3.33669e-05     -7.45482 
         -50      21.9797 -9.61313e-05  -3.2822e-05     -7.45392 
         -50      22.1837 -9.57809e-05  -3.3429e-05     -7.45301 
         -50      22.3886 -9.54436e-05 -3.39418e-05      -7.4521 
         -50      22.5945 -9.51031e-05 -3.43366e-05     -7.45117 
         -50      22.8013 -9.47502e-05 -3.46168e-05     -7.45024 
         -50      23.0091 -9.43839e-05 -3.48031e-05     -7.44929 
         -50      23.2177 -9.40124e-05 -3.49239e-05     -7.44834 
         -50      23.4274  -9.3652e-05 -3.50079e-05     -7.44737 
         -50       23.638 -9.33254e-05 -3.50784e-05      -7.4464 
         -50      23.8495 -9.30568e-05 -3.51499e-05     -7.44542 
         -50       24.062 -9.28665e-05 -3.52271e-05     -7.44443 
         -50      24.2754 -9.27627e-05 -3.53054e-05     -7.44343 
         -50      24.4897 -9.27313e-05 -3.53761e-05     -7.44242 
         -50       24.705 -9.27234e-05 -3.54327e-05      -7.4414 
         -50      24.9213 -9.26404e-05 -3.54815e-05     -7.44037 
         -50      25.1385 -9.23159e-05 -3.55557e-05     -7.43933 
         -50      25.3566 -9.14952e-05 -3.57333e-05     -7.43828 
         -50      25.5756  -9.0867e-05 -3.61358e-05     -7.43722 
         -50      25.7957 -9.06707e-05 -3.65572e-05     -7.43616 
         -50      26.0166 -9.03779e-05 -3.68403e-05     -7.43508 
         -50      26.2385 -9.00377e-05 -3.69618e-05       -7.434 
         -50      26.4613 -8.97278e-05 -3.69726e-05      -7.4329 
         -50      26.6851 -8.95129e-05 -3.69649e-05      -7.4318 
         -50      26.9098    -8.94e-05 -3.70274e-05     -7.43069 
         -50      27.1354 -8.92924e-05 -3.71882e-05     -7.42957 
         -50      27.3621 -8.89401e-05  -3.7345e-05     -7.42844 
         -50      27.5896 -8.81254e-05 -3.72734e-05      -7.4273 
         -50      27.8181 -8.77651e-05 -3.73228e-05     -7.42615 
         -50      28.0475 -8.74298e-05 -3.74113e-05     -7.42499 
         -50      28.2779 -8.71177e-05 -3.75271e-05     -7.42382 
         -50      28.5092 -8.68264e-05 -3.76608e-05     -7.42265 
         -50      28.7414 -8.65525e-05 -3.78054e-05     -7.42146 
         -50      28.9746 -8.62922e-05 -3.79561e-05     -7.42027 
         -50      29.2088 -8.60412e-05 -3.81093e-05     -7.41907 
         -50      29.4439 -8.57953e-05  -3.8263e-05     -7.41786 
         -50      29.6799 -8.55499e-05 -3.84163e-05     -7.41664 
         -50      29.9168 -8.53005e-05 -3.85691e-05     -7.41541 
         -50      30.1548 -8.50428e-05 -3.87219e-05     -7.41418 
         -50      30.3936  -8.4773e-05 -3.88753e-05     -7.41293 
         -50      30.6334 -8.44875e-05 -3.90304e-05     -7.41168 
         -50      30.8742 -8.41835e-05 -3.91882e-05     -7.41041 
         -50      31.1158 -8.38591e-05 -3.93492e-05     -7.40914 
         -50      31.3584 -8.35132e-05 -3.95138e-05     -7.40786 
         -50       31.602 -8.31456e-05  -3.9682e-05     -7.40658 
         -50      31.8465 -8.27573e-05 -3.98532e-05     -7.40528 
         -50      32.0919 -8.23512e-05 -4.00261e-05     -7.40398 
         -50      32.3383 -8.19308e-05 -4.01992e-05     -7.40267 
         -50      32.5856 -8.15017e-05 -4.03703e-05     -7.40135 
         -50       32.834 -8.10708e-05 -4.05371e-05     -7.40002 
         -50      33.0831 -8.06475e-05 -4.06966e-05     -7.39868 
         -50      33.3333 -8.02424e-05 -4.08463e-05     -7.39734 
         -50      33.5843 -7.98683e-05 -4.09835e-05     -7.39599 
         -50      33.8364 -7.95399e-05 -4.11066e-05     -7.39463 
         -50      34.0894 -7.92747e-05 -4.12143e-05     -7.39326 
         -50      34.3433 -7.90916e-05 -4.13074e-05     -7.39188 
         -50      34.5981 -7.90122e-05 -4.13883e-05      -7.3905 
         -50       34.854 -7.90604e-05  -4.1462e-05     -7.38911 
         -50      35.1107 -7.88082e-05 -4.13069e-05     -7.38771 
         -50      35.3684 -7.85402e-05 -4.10334e-05     -7.38631 
         -50      35.6271 -7.80006e-05 -4.08782e-05      -7.3849 
         -50      35.8867 -7.70915e-05  -4.0935e-05     -7.38348 
         -50      36.1472 -7.63521e-05 -4.09027e-05     -7.38205 
         -50      36.4086  -7.5717e-05  -4.0794e-05     -7.38062 
         -50      36.6711  -7.5132e-05 -4.06166e-05     -7.37918 
         -50      36.9344 -7.47358e-05 -4.06191e-05     -7.37773 
         -50      37.1987 -7.46436e-05 -4.09833e-05     -7.37628 
         -50      37.4639 -7.45455e-05 -4.13002e-05     -7.37481 
         -50      37.7301 -7.44281e-05 -4.15635e-05     -7.37335 
         -50      37.9972 -7.42833e-05 -4.17719e-05     -7.37187 
         -50      38.2652 -7.41064e-05 -4.19286e-05     -7.37039 
         -50      38.5342 -7.38963e-05 -4.20399e-05      -7.3689 
         -50      38.8042 -7.36542e-05  -4.2114e-05     -7.36741 
         -50      39.0751 -7.33831e-05 -4.21601e-05     -7.36591 
         -50      39.3469 -7.30871e-05 -4.21875e-05      -7.3644 
         -50      39.6197 -7.27707e-05 -4.22046e-05     -7.36289 
         -50      39.8934 -7.24388e-05 -4.22186e-05     -7.36137 
         -50       40.168 -7.20958e-05 -4.22346e-05     -7.35985 
         -50      40.4436 -7.17453e-05 -4.22556e-05     -7.35832 
         -50      40.7202 -7.13901e-05  -4.2282e-05     -7.35678 
         -50      40.9977 -7.10322e-05  -4.2312e-05     -7.35524 
         -50      41.2761 -7.06725e-05 -4.23411e-05     -7.35369 
         -50      41.5554 -7.03107e-05 -4.23633e-05     -7.35214 
         -50      41.8358 -6.99462e-05 -4.23709e-05     -7.35058 
         -50       42.117 -6.95782e-05  -4.2356e-05     -7.34902 
         -50      42.3992  -6.9206e-05 -4.23111e-05     -7.34745 
         -50      42.6823 -6.88298e-05  -4.2231e-05     -7.34588 
         -50      42.9664 -6.84516e-05 -4.21135e-05      -7.3443 
         -50      43.2514 -6.80767e-05 -4.19626e-05     -7.34271 
         -50      43.5373 -6.77137e-05 -4.17894e-05     -7.34113 
         -50      43.8243 -6.73771e-05 -4.16158e-05     -7.33953 
         -50      44.1121 -6.70888e-05 -4.14767e-05     -7.33793 
         -50      44.4009 -6.67371e-05 -4.14846e-05     -7.33633 
         -50      44.6906 -6.63303e-05 -4.15539e-05     -7.33472 
         -50      44.9813 -6.59796e-05 -4.15972e-05     -7.33311 
         -50      45.2729 -6.56679e-05 -4.16236e-05      -7.3315 
         -50      45.5654 -6.53795e-05 -4.16445e-05     -7.32988 
         -50      45.8589 -6.51018e-05  -4.1673e-05     -7.32825 
         -50      46.1534 -6.48252e-05 -4.17236e-05     -7.32662 
         -50      46.4488 -6.45453e-05 -4.18112e-05     -7.32499 
         -50      46.7451 -6.42628e-05 -4.19508e-05     -7.32336 
         -50      47.0423 -6.39854e-05 -4.21568e-05     -7.32172 
         -50      47.3406 -6.37161e-05   -4.235e-05     -7.32007 
         -50      47.6397 -6.33839e-05 -4.21904e-05     -7.31842 
         -50      47.9398  -6.3036e-05 -4.21148e-05     -7.31677 
         -50      48.2409 -6.26799e-05 -4.20942e-05     -7.31512 
         -50      48.5428 -6.23225e-05  -4.2105e-05     -7.31346 
         -50      48.8457 -6.19691e-05 -4.21276e-05      -7.3118 
         -50      49.1496 -6.16238e-05 -4.21471e-05     -7.31014 
         -50      49.4545 -6.12894e-05 -4.21525e-05     -7.30847 
         -50      49.7602 -6.09678e-05 -4.21364e-05     -7.30681 
         -50      50.0668 -6.06595e-05 -4.20951e-05     -7.30513 
         -50      50.3744 -6.03639e-05 -4.20273e-05     -7.30346 
         -50      50.6831 -6.00794e-05 -4.19347e-05     -7.30178 
         -50      50.9926  -5.9804e-05 -4.18209e-05      -7.3001 
         -50       51.303 -5.95346e-05  -4.1691e-05     -7.29842 
         -50      51.6144 -5.92683e-05 -4.15511e-05     -7.29674 
         -50      51.9268 -5.90017e-05 -4.14078e-05     -7.29505 
         -50        52.24 -5.87324e-05 -4.12677e-05     -7.29336 
         -50      52.5542 -5.84584e-05 -4.11365e-05     -7.29167 
         -50      52.8694 -5.81789e-05 -4.10183e-05     -7.28998 
         -50      53.1856  -5.7895e-05 -4.09149e-05     -7.28829 
         -50      53.5026 -5.76105e-05 -4.08253e-05     -7.28659 
         -50      53.8205 -5.73317e-05 -4.07443e-05      -7.2849 
         -50      54.1396  -5.7069e-05 -4.06622e-05      -7.2832 
         -50      54.4594 -5.68375e-05 -4.05635e-05      -7.2815 
         -50      54.7802 -5.66573e-05 -4.04259e-05      -7.2798 
         -50      55.1019 -5.62435e-05 -4.03747e-05     -7.27809 
         -50      55.4247 -5.58477e-05 -4.02945e-05     -7.27639 
         -50      55.7483 -5.55032e-05 -4.01788e-05     -7.27469 
         -50      56.0729 -5.51926e-05 -4.00437e-05     -7.27298 
         -50      56.3984 -5.49018e-05 -3.99016e-05     -7.27127 
         -50       56.725 -5.46201e-05 -3.97621e-05     -7.26957 
         -50      57.0523 -5.43398e-05 -3.96317e-05     -7.26786 
         -50      57.3807 -5.40551e-05 -3.95143e-05     -7.26615 
         -50      57.7099 -5.37628e-05 -3.94117e-05     -7.26444 
         -50      58.0403 -5.34616e-05 -3.93232e-05     -7.26274 
         -50      58.3714 -5.31517e-05 -3.92468e-05     -7.26103 
         -50      58.7035 -5.28349e-05 -3.91789e-05     -7.25932 
         -50      59.0367 -5.25134e-05 -3.91151e-05     -7.25761 
         -50      59.3707 -5.21911e-05 -3.90503e-05      -7.2559 
         -50      59.7056 -5.18716e-05 -3.89792e-05     -7.25419 
         -50      60.0414 -5.15589e-05 -3.88967e-05     -7.25248 
         -50      60.3784  -5.1257e-05 -3.87988e-05     -7.25078 
         -50      60.7161 -5.09698e-05 -3.86826e-05     -7.24907 
         -50      61.0548 -5.07003e-05 -3.85469e-05     -7.24736 
         -50      61.3944 -5.04506e-05  -3.8393e-05     -7.24566 
         -50      61.7351 -5.02221e-05 -3.82251e-05     -7.24395 
         -50      62.0767 -5.00148e-05 -3.80513e-05     -7.24225 
         -50      62.4191  -4.9827e-05 -3.78837e-05     -7.24054 
         -50      62.7625 -4.96556e-05 -3.77395e-05     -7.23884 
         -50       63.107 -4.94954e-05 -3.76414e-05     -7.23714 
         -50      63.4523 -4.93394e-05 -3.76191e-05     -7.23544 
         -50      63.7985 -4.91783e-05  -3.7709e-05     -7.23374 
         -50      64.1458 -4.86098e-05 -3.78072e-05     -7.23204 
         -50      64.4939 -4.81602e-05 -3.78784e-05     -7.23034 
         -50       64.843 -4.78198e-05 -3.78863e-05     -7.22865 
         -50      65.1929 -4.75633e-05 -3.78045e-05     -7.22696 
         -50       65.544 -4.73565e-05 -3.76175e-05     -7.22527 
         -50      65.8959 -4.71591e-05 -3.73211e-05     -7.22358 
         -50      66.2487 -4.69265e-05 -3.69221e-05     -7.22189 
         -50      66.6025 -4.66175e-05 -3.64528e-05     -7.22021 
         -50      66.9573 -4.64518e-05 -3.65086e-05     -7.21852 
         -50       67.313 -4.63125e-05 -3.64757e-05     -7.21684 
         -50      67.6695 -4.61713e-05 -3.63791e-05     -7.21516 
         -50      68.0271 -4.60068e-05 -3.62432e-05     -7.21349 
         -50      68.3857 -4.58044e-05 -3.60923e-05     -7.21181 
         -50      68.7451 -4.55556e-05  -3.5952e-05     -7.21014 
         -50      69.1055 -4.52573e-05 -3.58501e-05     -7.20848 
         -50      69.4669 -4.49108e-05 -3.58172e-05     -7.20681 
         -50      69.8291 -4.45914e-05 -3.57512e-05     -7.20515 
         -50      70.1923 -4.44851e-05   -3.528e-05     -7.20349 
         -50      70.5564 -4.43316e-05 -3.48939e-05     -7.20183 
         -50      70.9217 -4.41393e-05 -3.45768e-05     -7.20018 
         -50      71.2877 -4.39172e-05 -3.43155e-05     -7.19853 
         -50      71.6546 -4.36737e-05 -3.40986e-05     -7.19688 
         -50      72.0225 -4.34171e-05 -3.39169e-05     -7.19524 
         -50      72.3915 -4.31546e-05 -3.37624e-05      -7.1936 
         -50      72.7613  -4.2893e-05 -3.36291e-05     -7.19196 
         -50       73.132 -4.26377e-05 -3.35117e-05     -7.19033 
         -50      73.5036  -4.2393e-05 -3.34059e-05      -7.1887 
         -50      73.8764 -4.21616e-05  -3.3308e-05     -7.18707 
         -50      74.2499 -4.19454e-05 -3.32151e-05     -7.18545 
         -50      74.6244 -4.17445e-05 -3.31242e-05     -7.18383 
         -50           75 -4.15578e-05 -3.30327e-05     -7.18222 
         -25            0  -9.8328e-20 -2.60209e-24     -7.20164 
         -25     0.000471 -9.62254e-06 -2.64724e-10     -7.20164 
         -25     0.001884 -3.41536e-05 -1.05884e-09     -7.20164 
         -25     0.004239 -6.28666e-05 -2.39932e-09     -7.20164 
         -25     0.007537 -8.43438e-05 -4.36256e-09     -7.20164 
         -25     0.011776 -9.25776e-05   -7.124e-09     -7.20164 
         -25     0.016958 -9.00506e-05 -1.09769e-08     -7.20164 
         -25     0.023081  -8.5443e-05 -1.62994e-08     -7.20164 
         -25      0.03015  -8.6776e-05 -2.35074e-08     -7.20164 
         -25     0.038157 -9.43211e-05 -3.29977e-08     -7.20164 
         -25     0.047107 -0.000100026 -4.52255e-08     -7.20164 
         -25     0.056999  -9.7854e-05 -6.08759e-08     -7.20164 
         -25     0.067837   -9.761e-05  -8.1153e-08     -7.20164 
         -25     0.079614 -0.000106691 -1.07798e-07     -7.20163 
         -25     0.092332 -0.000104107 -1.41764e-07     -7.20163 
         -25     0.105992 -0.000106755 -1.84381e-07     -7.20163 
         -25       0.1206 -0.000107951 -2.37426e-07     -7.20163 
         -25     0.136145 -0.000108999  -3.0242e-07     -7.20163 
         -25     0.152631 -0.000110213 -3.80898e-07     -7.20163 
         -25     0.170067 -0.000111251 -4.74385e-07     -7.20163 
         -25     0.188438 -0.000111712 -5.84222e-07     -7.20163 
         -25     0.207751 -0.000111718 -7.11809e-07     -7.20163 
         -25     0.228006 -0.000111873 -8.58425e-07     -7.20163 
         -25     0.249212 -0.000111561 -1.02524e-06     -7.20163 
         -25     0.271351 -0.000111196 -1.21301e-06     -7.20163 
         -25     0.294433 -0.000110644 -1.42319e-06     -7.20163 
         -25     0.318456 -0.000109924 -1.65659e-06     -7.20163 
         -25     0.343432 -0.000109108 -1.91367e-06     -7.20163 
         -25     0.369339  -0.00010825 -2.19385e-06     -7.20163 
         -25     0.396189 -0.000107383 -2.49603e-06     -7.20163 
         -25     0.423981 -0.000106533 -2.81802e-06     -7.20163 
         -25     0.452726 -0.000105716 -3.15674e-06     -7.20163 
         -25     0.482403 -0.000104951 -3.50784e-06     -7.20163 
         -25     0.513021 -0.000104257  -3.8668e-06     -7.20162 
         -25     0.544594 -0.000103655 -4.22935e-06     -7.20162 
         -25     0.577096 -0.000103147 -4.59222e-06     -7.20162 
         -25     0.610541  -0.00010269 -4.95627e-06     -7.20162 
         -25     0.644927 -0.000102309 -5.33789e-06     -7.20162 
         -25      0.68027 -0.000101977 -5.73496e-06     -7.20162 
         -25     0.716541 -0.000101667 -6.14393e-06     -7.20161 
         -25     0.753754 -0.000101351 -6.56161e-06     -7.20161 
         -25     0.791909 -0.000101008  -6.9846e-06     -7.20161 
         -25     0.831022  -0.00010062 -7.40975e-06     -7.20161 
         -25     0.871061 -0.000100174 -7.83351e-06      -7.2016 
         -25     0.912043 -9.96602e-05 -8.25314e-06      -7.2016 
         -25     0.953966 -9.90748e-05 -8.66602e-06      -7.2016 
         -25     0.996849 -9.84173e-05 -9.07013e-06     -7.20159 
         -25      1.04066 -9.76917e-05 -9.46342e-06     -7.20159 
         -25      1.08541 -9.69039e-05 -9.84483e-06     -7.20158 
         -25      1.13112  -9.6062e-05 -1.02137e-05     -7.20158 
         -25      1.17775 -9.51759e-05 -1.05695e-05     -7.20157 
         -25      1.22533 -9.42548e-05 -1.09119e-05     -7.20157 
         -25      1.27384 -9.33066e-05 -1.12409e-05     -7.20156 