Variables = x, y, u, v, p

Zone, I=6400, F=POINT
         -50            0            0            0     -47.8324 
         -50     0.000471 -1.90575e-05 -2.21844e-09     -47.8324 
         -50     0.001884 -6.74836e-05 -8.58394e-09     -47.8324 
         -50     0.004239 -0.000123651 -1.83716e-08     -47.8324 
         -50     0.007537 -0.000164561 -3.07882e-08     -47.8324 
         -50     0.011776 -0.000178171 -4.53576e-08     -47.8324 
         -50     0.016958 -0.000169598 -6.21655e-08     -47.8324 
         -50     0.023081 -0.000156476 -8.17289e-08     -47.8324 
         -50      0.03015 -0.000155078 -1.04638e-07     -47.8324 
         -50     0.038157 -0.000165976 -1.31048e-07     -47.8324 
         -50     0.047107 -0.000172871 -1.60663e-07     -47.8324 
         -50     0.056999 -0.000163548 -1.93134e-07     -47.8324 
         -50     0.067837 -0.000157973 -2.28657e-07     -47.8324 
         -50     0.079614 -0.000171834 -2.66375e-07     -47.8324 
         -50     0.092332 -0.000162277 -3.04749e-07     -47.8324 
         -50     0.105992 -0.000163521 -3.45014e-07     -47.8324 
         -50       0.1206 -0.000162447 -3.84822e-07     -47.8324 
         -50     0.136145 -0.000161575 -4.22974e-07     -47.8324 
         -50     0.152631 -0.000161558 -4.58437e-07     -47.8324 
         -50     0.170067 -0.000161788 -4.89878e-07     -47.8324 
         -50     0.188438 -0.000161519 -5.15256e-07     -47.8324 
         -50     0.207751 -0.000160953 -5.32079e-07     -47.8324 
         -50     0.228006 -0.000161166 -5.38873e-07     -47.8324 
         -50     0.249212  -0.00016098 -5.39366e-07     -47.8324 
         -50     0.271351 -0.000161072 -5.27401e-07     -47.8323 
         -50     0.294433 -0.000161136 -5.12436e-07     -47.8323 
         -50     0.318456 -0.000161131 -5.09729e-07     -47.8323 
         -50     0.343432 -0.000161113 -5.29386e-07     -47.8323 
         -50     0.369339 -0.000161106 -5.76019e-07     -47.8323 
         -50     0.396189 -0.000161114 -6.48764e-07     -47.8323 
         -50     0.423981 -0.000161128 -7.41793e-07     -47.8323 
         -50     0.452726 -0.000161139 -8.45483e-07     -47.8322 
         -50     0.482403 -0.000161145 -9.47858e-07     -47.8322 
         -50     0.513021 -0.000161165 -1.03674e-06     -47.8322 
         -50     0.544594 -0.000161223  -1.1016e-06     -47.8322 
         -50     0.577096 -0.000161332 -1.13494e-06     -47.8321 
         -50     0.610541 -0.000161439   -1.142e-06     -47.8321 
         -50     0.644927   -0.0001616 -1.30571e-06     -47.8321 
         -50      0.68027  -0.00016179 -1.45003e-06      -47.832 
         -50     0.716541 -0.000162018 -1.58025e-06      -47.832 
         -50     0.753754 -0.000162289  -1.7009e-06      -47.832 
         -50     0.791909 -0.000162601 -1.81558e-06     -47.8319 
         -50     0.831022 -0.000162948 -1.92714e-06     -47.8319 
         -50     0.871061 -0.000163318 -2.03771e-06     -47.8318 
         -50     0.912043 -0.000163698 -2.14915e-06     -47.8318 
         -50     0.953966 -0.000164074 -2.26307e-06     -47.8317 
         -50     0.996849 -0.000164434 -2.38123e-06     -47.8316 
         -50      1.04066 -0.000164769 -2.50548e-06     -47.8316 
         -50      1.08541 -0.000165076 -2.63817e-06     -47.8315 
         -50      1.13112 -0.000165358 -2.78198e-06     -47.8314 
         -50      1.17775 -0.000165624 -2.93946e-06     -47.8313 
         -50      1.22533 -0.000165891 -3.11274e-06     -47.8312 
         -50      1.27384  -0.00016618 -3.30231e-06     -47.8311 
         -50      1.32333 -0.000166509 -3.50547e-06      -47.831 
         -50      1.37373 -0.000166888 -3.71372e-06     -47.8309 
         -50      1.42507 -0.000167305 -3.90988e-06     -47.8308 
         -50      1.47736 -0.000167711 -4.06338e-06     -47.8307 
         -50      1.53061 -0.000167975 -4.15914e-06     -47.8306 
         -50      1.58478 -0.000168171   -4.343e-06     -47.8304 
         -50      1.63989 -0.000168328 -4.59642e-06     -47.8303 
         -50      1.69595  -0.00016839 -4.87878e-06     -47.8302 
         -50      1.75297 -0.000168324 -5.16127e-06       -47.83 
         -50      1.81091 -0.000168114 -5.42615e-06     -47.8299 
         -50      1.86979 -0.000167764 -5.66673e-06     -47.8297 
         -50      1.92964 -0.000167292 -5.88608e-06     -47.8295 
         -50       1.9904 -0.000166732 -6.09556e-06     -47.8293 
         -50      2.05211 -0.000166129 -6.31376e-06     -47.8291 
         -50      2.11476 -0.000165534 -6.56437e-06     -47.8289 
         -50      2.17838 -0.000165004 -6.87439e-06     -47.8287 
         -50      2.24291 -0.000164597 -7.27135e-06     -47.8285 
         -50      2.30839 -0.000164366 -7.78178e-06     -47.8283 
         -50       2.3748 -0.000164358 -8.42831e-06      -47.828 
         -50      2.44219 -0.000164606 -9.22777e-06     -47.8278 
         -50      2.51049  -0.00016513 -1.01877e-05     -47.8275 
         -50      2.57974 -0.000165928 -1.13064e-05     -47.8272 
         -50      2.64993 -0.000166979 -1.25701e-05      -47.827 
         -50      2.72108 -0.000168239 -1.39528e-05     -47.8267 
         -50      2.79315 -0.000169636 -1.54143e-05     -47.8264 
         -50      2.86617 -0.000171081  -1.6904e-05      -47.826 
         -50      2.94012 -0.000172466 -1.83611e-05     -47.8257 
         -50      3.01505 -0.000173669 -1.97191e-05     -47.8254 
         -50      3.09089 -0.000174566 -2.09098e-05      -47.825 
         -50      3.16767 -0.000175045 -2.18734e-05     -47.8246 
         -50      3.24542 -0.000175019 -2.25677e-05     -47.8242 
         -50      3.32409 -0.000174456 -2.29807e-05     -47.8238 
         -50       3.4037 -0.000173401 -2.31494e-05     -47.8234 
         -50      3.48425 -0.000172016 -2.31791e-05      -47.823 
         -50      3.56577 -0.000170621   -2.327e-05     -47.8226 
         -50       3.6482 -0.000169749 -2.37475e-05     -47.8221 
         -50      3.73158 -0.000170207 -2.50992e-05     -47.8216 
         -50       3.8159 -0.000170384 -2.46758e-05     -47.8211 
         -50      3.90119  -0.00017025 -2.50273e-05     -47.8206 
         -50       3.9874 -0.000169505  -2.5342e-05     -47.8201 
         -50      4.07454 -0.000168677 -2.54241e-05     -47.8196 
         -50      4.16263 -0.000167977 -2.54131e-05      -47.819 
         -50      4.25169  -0.00016744 -2.53164e-05     -47.8184 
         -50      4.34166 -0.000167075 -2.51812e-05     -47.8178 
         -50      4.43258 -0.000166868 -2.50728e-05     -47.8172 
         -50      4.52447 -0.000166792 -2.50557e-05     -47.8166 
         -50      4.61726 -0.000166808 -2.51768e-05     -47.8159 
         -50        4.711 -0.000166878 -2.54531e-05     -47.8153 
         -50      4.80569 -0.000166964  -2.5865e-05     -47.8146 
         -50      4.90135 -0.000167033  -2.6356e-05     -47.8139 
         -50      4.99791 -0.000167064 -2.68397e-05     -47.8131 
         -50      5.09542 -0.000167044 -2.72194e-05     -47.8124 
         -50      5.19387 -0.000166969  -2.7417e-05     -47.8116 
         -50       5.2933 -0.000166842 -2.74164e-05     -47.8108 
         -50      5.39364 -0.000166662 -2.73236e-05       -47.81 
         -50      5.49491  -0.00016642 -2.74447e-05     -47.8092 
         -50      5.59713 -0.000166082 -2.83855e-05     -47.8083 
         -50      5.70033 -0.000165497 -2.90585e-05     -47.8074 
         -50      5.80443 -0.000164911 -2.92178e-05     -47.8065 
         -50      5.90948 -0.000164461 -2.97788e-05     -47.8055 
         -50      6.01551 -0.000164167 -3.03836e-05     -47.8046 
         -50      6.12244 -0.000164053 -3.08957e-05     -47.8036 
         -50      6.23031 -0.000164126 -3.12897e-05     -47.8026 
         -50      6.33912 -0.000164343 -3.15662e-05     -47.8015 
         -50      6.44892 -0.000164599 -3.17053e-05     -47.8005 
         -50      6.55962 -0.000164713 -3.16637e-05     -47.7994 
         -50      6.67126  -0.00016443 -3.14252e-05     -47.7983 
         -50      6.78384 -0.000163938 -3.11948e-05     -47.7971 
         -50      6.89741 -0.000163851 -3.09302e-05     -47.7959 
         -50      7.01187 -0.000163772 -3.05775e-05     -47.7947 
         -50      7.12728 -0.000163711 -3.02885e-05     -47.7935 
         -50      7.24363 -0.000163678  -3.0186e-05     -47.7922 
         -50      7.36097  -0.00016367 -3.03498e-05     -47.7909 
         -50       7.4792  -0.00016367 -3.08008e-05     -47.7896 
         -50      7.59838 -0.000163636 -3.14835e-05     -47.7882 
         -50      7.71854 -0.000163502 -3.22455e-05     -47.7869 
         -50       7.8396 -0.000163181 -3.28136e-05     -47.7854 
         -50      7.96161 -0.000162557 -3.27691e-05      -47.784 
         -50      8.08455 -0.000161783 -3.21592e-05     -47.7825 
         -50      8.20849 -0.000161968 -3.30343e-05      -47.781 
         -50      8.33332  -0.00016216 -3.33254e-05     -47.7794 
         -50      8.45909 -0.000162347 -3.33637e-05     -47.7779 
         -50       8.5858 -0.000162481 -3.33406e-05     -47.7762 
         -50      8.71351 -0.000162498 -3.33402e-05     -47.7746 
         -50       8.8421 -0.000162354 -3.33777e-05     -47.7729 
         -50      8.97164 -0.000162062 -3.34459e-05     -47.7712 
         -50      9.10212 -0.000161736 -3.35691e-05     -47.7694 
         -50       9.2336 -0.000161657  -3.3866e-05     -47.7676 
         -50      9.36596 -0.000162127 -3.44489e-05     -47.7658 
         -50      9.49927 -0.000161652 -3.42644e-05     -47.7639 
         -50      9.63352 -0.000161327 -3.43522e-05      -47.762 
         -50      9.76877 -0.000161113 -3.45609e-05     -47.7601 
         -50       9.9049  -0.00016097 -3.47907e-05     -47.7581 
         -50       10.042 -0.000160858 -3.49841e-05     -47.7561 
         -50      10.1801 -0.000160742 -3.51174e-05      -47.754 
         -50       10.319 -0.000160595 -3.51912e-05     -47.7519 
         -50      10.4589 -0.000160399  -3.5223e-05     -47.7497 
         -50      10.5998 -0.000160147 -3.52394e-05     -47.7476 
         -50      10.7416 -0.000159844 -3.52691e-05     -47.7453 
         -50      10.8843 -0.000159504 -3.53377e-05     -47.7431 
         -50       11.028 -0.000159153 -3.54623e-05     -47.7408 
         -50      11.1726 -0.000158824 -3.56492e-05     -47.7384 
         -50      11.3182 -0.000158552 -3.58922e-05      -47.736 
         -50      11.4647 -0.000158371 -3.61723e-05     -47.7336 
         -50      11.6122 -0.000158307 -3.64617e-05     -47.7311 
         -50      11.7605 -0.000158367 -3.67279e-05     -47.7286 
         -50      11.9099  -0.00015853  -3.6942e-05      -47.726 
         -50      12.0602 -0.000158732 -3.70894e-05     -47.7234 
         -50      12.2114 -0.000158854  -3.7185e-05     -47.7207 
         -50      12.3636   -0.0001587  -3.7291e-05      -47.718 
         -50      12.5167  -0.00015798 -3.75395e-05     -47.7153 
         -50      12.6707 -0.000156804 -3.85466e-05     -47.7125 
         -50      12.8257 -0.000156563 -3.82841e-05     -47.7096 
         -50      12.9817 -0.000157215 -3.74174e-05     -47.7068 
         -50      13.1386  -0.00015768 -3.79655e-05     -47.7038 
         -50      13.2964  -0.00015785 -3.87188e-05     -47.7008 
         -50      13.4551 -0.000157782 -3.94835e-05     -47.6978 
         -50      13.6149 -0.000157535 -4.01393e-05     -47.6947 
         -50      13.7755 -0.000157167 -4.06259e-05     -47.6916 
         -50      13.9371 -0.000156731  -4.0931e-05     -47.6884 
         -50      14.0996 -0.000156274 -4.10775e-05     -47.6852 
         -50      14.2631  -0.00015583 -4.11114e-05     -47.6819 
         -50      14.4275 -0.000155426 -4.10915e-05     -47.6786 
         -50      14.5928 -0.000155075 -4.10791e-05     -47.6752 
         -50      14.7592  -0.00015478 -4.11298e-05     -47.6718 
         -50      14.9264  -0.00015453 -4.12859e-05     -47.6683 
         -50      15.0946 -0.000154306  -4.1571e-05     -47.6647 
         -50      15.2637 -0.000154083 -4.19869e-05     -47.6611 
         -50      15.4338 -0.000153834 -4.25117e-05     -47.6575 
         -50      15.6048 -0.000153532 -4.31008e-05     -47.6538 
         -50      15.7767 -0.000153164 -4.36913e-05     -47.6501 
         -50      15.9496 -0.000152732 -4.42091e-05     -47.6463 
         -50      16.1235 -0.000152268 -4.45786e-05     -47.6424 
         -50      16.2982 -0.000151845  -4.4737e-05     -47.6385 
         -50      16.4739  -0.00015159 -4.46532e-05     -47.6346 
         -50      16.6506   -0.0001517 -4.43498e-05     -47.6305 
         -50      16.8282 -0.000151681 -4.50219e-05     -47.6265 
         -50      17.0068 -0.000151479 -4.57208e-05     -47.6224 
         -50      17.1862 -0.000151249 -4.61544e-05     -47.6182 
         -50      17.3667 -0.000150997 -4.64061e-05     -47.6139 
         -50      17.5481 -0.000150728 -4.65471e-05     -47.6097 
         -50      17.7304 -0.000150449 -4.66371e-05     -47.6053 
         -50      17.9136  -0.00015016 -4.67236e-05     -47.6009 
         -50      18.0979 -0.000149865 -4.68427e-05     -47.5965 
         -50       18.283 -0.000149564 -4.70187e-05      -47.592 
         -50      18.4691 -0.000149255 -4.72652e-05     -47.5874 
         -50      18.6561 -0.000148936 -4.75855e-05     -47.5828 
         -50      18.8441 -0.000148602  -4.7973e-05     -47.5781 
         -50       19.033  -0.00014825 -4.84117e-05     -47.5733 
         -50      19.2228 -0.000147872 -4.88782e-05     -47.5685 
         -50      19.4136 -0.000147464 -4.93422e-05     -47.5637 
         -50      19.6054  -0.00014702 -4.97676e-05     -47.5588 
         -50       19.798 -0.000146536 -5.01142e-05     -47.5538 
         -50      19.9917 -0.000146008 -5.03397e-05     -47.5488 
         -50      20.1862 -0.000145439 -5.04014e-05     -47.5437 
         -50      20.3818 -0.000144896 -5.05738e-05     -47.5386 
         -50      20.5782 -0.000144488  -5.0734e-05     -47.5334 
         -50      20.7756  -0.00014416 -5.07934e-05     -47.5281 
         -50       20.974 -0.000143861 -5.10994e-05     -47.5228 
         -50      21.1732 -0.000143526 -5.21384e-05     -47.5174 
         -50      21.3734 -0.000143639 -5.16042e-05      -47.512 
         -50      21.5745 -0.000143197 -5.13456e-05     -47.5065 
         -50      21.7767 -0.000142649  -5.1547e-05     -47.5009 
         -50      21.9797 -0.000142598   -5.179e-05     -47.4953 
         -50      22.1837 -0.000142185 -5.27437e-05     -47.4897 
         -50      22.3886 -0.000141688 -5.34396e-05     -47.4839 
         -50      22.5945 -0.000141137  -5.3915e-05     -47.4782 
         -50      22.8013 -0.000140572 -5.42137e-05     -47.4723 
         -50      23.0091 -0.000140031  -5.4384e-05     -47.4664 
         -50      23.2177 -0.000139545  -5.4475e-05     -47.4605 
         -50      23.4274 -0.000139127  -5.4534e-05     -47.4544 
         -50       23.638 -0.000138779 -5.46029e-05     -47.4484 
         -50      23.8495 -0.000138483 -5.47156e-05     -47.4422 
         -50       24.062 -0.000138207 -5.48947e-05      -47.436 
         -50      24.2754 -0.000137916 -5.51477e-05     -47.4298 
         -50      24.4897 -0.000137576 -5.54648e-05     -47.4235 
         -50       24.705 -0.000137173 -5.58148e-05     -47.4171 
         -50      24.9213  -0.00013673 -5.61423e-05     -47.4107 
         -50      25.1385 -0.000136328 -5.63643e-05     -47.4042 
         -50      25.3566 -0.000136141 -5.63672e-05     -47.3976 
         -50      25.5756 -0.000136106 -5.67367e-05      -47.391 
         -50      25.7957  -0.00013579 -5.71493e-05     -47.3844 
         -50      26.0166 -0.000135231 -5.72895e-05     -47.3777 
         -50      26.2385 -0.000134478 -5.73384e-05     -47.3709 
         -50      26.4613 -0.000133643 -5.74263e-05     -47.3641 
         -50      26.6851 -0.000132863 -5.76097e-05     -47.3572 
         -50      26.9098 -0.000132265  -5.7838e-05     -47.3502 
         -50      27.1354 -0.000131905 -5.79077e-05     -47.3432 
         -50      27.3621 -0.000131709 -5.74039e-05     -47.3362 
         -50      27.5896 -0.000131396 -5.63555e-05     -47.3291 
         -50      27.8181 -0.000130883 -5.71449e-05     -47.3219 
         -50      28.0475 -0.000130336 -5.78063e-05     -47.3147 
         -50      28.2779 -0.000129777 -5.83519e-05     -47.3074 
         -50      28.5092 -0.000129225  -5.8794e-05        -47.3 
         -50      28.7414 -0.000128691 -5.91465e-05     -47.2926 
         -50      28.9746 -0.000128182  -5.9423e-05     -47.2852 
         -50      29.2088 -0.000127702  -5.9637e-05     -47.2777 
         -50      29.4439  -0.00012725 -5.98014e-05     -47.2701 
         -50      29.6799 -0.000126824 -5.99282e-05     -47.2625 
         -50      29.9168  -0.00012642 -6.00284e-05     -47.2548 
         -50      30.1548 -0.000126031 -6.01114e-05     -47.2471 
         -50      30.3936  -0.00012565 -6.01851e-05     -47.2393 
         -50      30.6334 -0.000125269 -6.02557e-05     -47.2315 
         -50      30.8742 -0.000124881 -6.03278e-05     -47.2236 
         -50      31.1158 -0.000124478 -6.04041e-05     -47.2157 
         -50      31.3584 -0.000124054 -6.04855e-05     -47.2077 
         -50       31.602 -0.000123605 -6.05718e-05     -47.1997 
         -50      31.8465 -0.000123126 -6.06612e-05     -47.1916 
         -50      32.0919 -0.000122617 -6.07513e-05     -47.1834 
         -50      32.3383 -0.000122078 -6.08389e-05     -47.1752 
         -50      32.5856 -0.000121511 -6.09212e-05      -47.167 
         -50       32.834 -0.000120921 -6.09961e-05     -47.1587 
         -50      33.0831 -0.000120316 -6.10628e-05     -47.1503 
         -50      33.3333 -0.000119704 -6.11231e-05      -47.142 
         -50      33.5843 -0.000119096 -6.11824e-05     -47.1335 
         -50      33.8364 -0.000118505 -6.12506e-05      -47.125 
         -50      34.0894 -0.000117945 -6.13437e-05     -47.1165 
         -50      34.3433 -0.000117429  -6.1485e-05     -47.1079 
         -50      34.5981 -0.000116971 -6.17073e-05     -47.0993 
         -50       34.854 -0.000116586 -6.20544e-05     -47.0906 
         -50      35.1107 -0.000116347 -6.17412e-05     -47.0819 
         -50      35.3684 -0.000116028 -6.11386e-05     -47.0731 
         -50      35.6271 -0.000115545 -6.09969e-05     -47.0643 
         -50      35.8867 -0.000114884 -6.17205e-05     -47.0554 
         -50      36.1472 -0.000114298 -6.23657e-05     -47.0465 
         -50      36.4086 -0.000113779 -6.29587e-05     -47.0375 
         -50      36.6711 -0.000113322 -6.35197e-05     -47.0285 
         -50      36.9344 -0.000112876  -6.3809e-05     -47.0195 
         -50      37.1987 -0.000112361 -6.37023e-05     -47.0104 
         -50      37.4639 -0.000111838 -6.36337e-05     -47.0013 
         -50      37.7301  -0.00011131 -6.35947e-05     -46.9921 
         -50      37.9972 -0.000110777 -6.35775e-05     -46.9829 
         -50      38.2652 -0.000110241 -6.35745e-05     -46.9736 
         -50      38.5342 -0.000109701 -6.35789e-05     -46.9644 
         -50      38.8042 -0.000109159  -6.3585e-05      -46.955 
         -50      39.0751 -0.000108617 -6.35878e-05     -46.9457 
         -50      39.3469 -0.000108074 -6.35839e-05     -46.9362 
         -50      39.6197 -0.000107533 -6.35708e-05     -46.9268 
         -50      39.8934 -0.000106996 -6.35475e-05     -46.9173 
         -50       40.168 -0.000106464 -6.35141e-05     -46.9078 
         -50      40.4436 -0.000105941 -6.34718e-05     -46.8982 
         -50      40.7202 -0.000105427 -6.34225e-05     -46.8886 
         -50      40.9977 -0.000104926 -6.33693e-05      -46.879 
         -50      41.2761  -0.00010444 -6.33152e-05     -46.8693 
         -50      41.5554  -0.00010397 -6.32634e-05     -46.8596 
         -50      41.8358 -0.000103518 -6.32167e-05     -46.8499 
         -50       42.117 -0.000103085 -6.31768e-05     -46.8401 
         -50      42.3992 -0.000102669 -6.31439e-05     -46.8303 
         -50      42.6823 -0.000102268 -6.31155e-05     -46.8205 
         -50      42.9664 -0.000101879 -6.30864e-05     -46.8106 
         -50      43.2514 -0.000101495 -6.30468e-05     -46.8007 
         -50      43.5373 -0.000101107 -6.29821e-05     -46.7908 
         -50      43.8243 -0.000100701  -6.2871e-05     -46.7808 
         -50      44.1121 -0.000100262  -6.2685e-05     -46.7709 
         -50      44.4009  -9.9647e-05 -6.25914e-05     -46.7608 
         -50      44.6906 -9.89857e-05 -6.26864e-05     -46.7508 
         -50      44.9813  -9.8421e-05 -6.27784e-05     -46.7407 
         -50      45.2729 -9.79364e-05 -6.28343e-05     -46.7306 
         -50      45.5654 -9.75097e-05 -6.28393e-05     -46.7205 
         -50      45.8589 -9.71131e-05 -6.27975e-05     -46.7103 
         -50      46.1534 -9.67116e-05 -6.27319e-05     -46.7002 
         -50      46.4488 -9.62622e-05 -6.26852e-05       -46.69 
         -50      46.7451 -9.57113e-05 -6.27198e-05     -46.6797 
         -50      47.0423 -9.49934e-05 -6.29183e-05     -46.6695 
         -50      47.3406 -9.41267e-05 -6.32772e-05     -46.6592 
         -50      47.6397  -9.3638e-05 -6.32422e-05     -46.6489 
         -50      47.9398 -9.31794e-05 -6.31927e-05     -46.6386 
         -50      48.2409 -9.27409e-05 -6.31307e-05     -46.6283 
         -50      48.5428 -9.23143e-05  -6.3058e-05     -46.6179 
         -50      48.8457 -9.18925e-05 -6.29763e-05     -46.6075 
         -50      49.1496 -9.14699e-05 -6.28872e-05     -46.5971 
         -50      49.4545 -9.10425e-05 -6.27925e-05     -46.5867 
         -50      49.7602 -9.06081e-05 -6.26944e-05     -46.5763 
         -50      50.0668 -9.01654e-05 -6.25952e-05     -46.5658 
         -50      50.3744 -8.97144e-05 -6.24973e-05     -46.5553 
         -50      50.6831 -8.92561e-05 -6.24035e-05     -46.5449 
         -50      50.9926 -8.87931e-05 -6.23162e-05     -46.5344 
         -50       51.303  -8.8328e-05  -6.2238e-05     -46.5238 
         -50      51.6144 -8.78642e-05 -6.21705e-05     -46.5133 
         -50      51.9268 -8.74049e-05 -6.21145e-05     -46.5028 
         -50        52.24  -8.6954e-05 -6.20695e-05     -46.4922 
         -50      52.5542  -8.6514e-05  -6.2033e-05     -46.4816 
         -50      52.8694 -8.60869e-05 -6.19998e-05     -46.4711 
         -50      53.1856 -8.56731e-05 -6.19617e-05     -46.4605 
         -50      53.5026 -8.52713e-05 -6.19061e-05     -46.4498 
         -50      53.8205 -8.48775e-05 -6.18156e-05     -46.4392 
         -50      54.1396 -8.44845e-05 -6.16666e-05     -46.4286 
         -50      54.4594 -8.40816e-05 -6.14283e-05      -46.418 
         -50      54.7802 -8.36532e-05 -6.10616e-05     -46.4073 
         -50      55.1019 -8.32065e-05  -6.1093e-05     -46.3967 
         -50      55.4247 -8.27617e-05 -6.11255e-05      -46.386 
         -50      55.7483 -8.23205e-05 -6.10838e-05     -46.3753 
         -50      56.0729 -8.18845e-05 -6.09835e-05     -46.3647 
         -50      56.3984 -8.14548e-05 -6.08382e-05      -46.354 
         -50       56.725 -8.10317e-05 -6.06595e-05     -46.3433 
         -50      57.0523 -8.06158e-05 -6.04578e-05     -46.3326 
         -50      57.3807 -8.02066e-05 -6.02415e-05     -46.3219 
         -50      57.7099 -7.98034e-05 -6.00176e-05     -46.3113 
         -50      58.0403 -7.94048e-05 -5.97917e-05     -46.3006 
         -50      58.3714 -7.90099e-05 -5.95686e-05     -46.2899 
         -50      58.7035  -7.8617e-05 -5.93516e-05     -46.2792 
         -50      59.0367 -7.82242e-05 -5.91429e-05     -46.2685 
         -50      59.3707 -7.78301e-05 -5.89443e-05     -46.2578 
         -50      59.7056 -7.74329e-05 -5.87564e-05     -46.2471 
         -50      60.0414 -7.70311e-05 -5.85791e-05     -46.2364 
         -50      60.3784 -7.66233e-05 -5.84117e-05     -46.2257 
         -50      60.7161 -7.62092e-05  -5.8253e-05      -46.215 
         -50      61.0548 -7.57884e-05 -5.81012e-05     -46.2043 
         -50      61.3944 -7.53615e-05  -5.7954e-05     -46.1936 
         -50      61.7351 -7.49298e-05 -5.78085e-05     -46.1829 
         -50      62.0767 -7.44961e-05 -5.76619e-05     -46.1722 
         -50      62.4191 -7.40642e-05 -5.75105e-05     -46.1616 
         -50      62.7625 -7.36393e-05 -5.73504e-05     -46.1509 
         -50       63.107 -7.32284e-05 -5.71772e-05     -46.1402 
         -50      63.4523 -7.28408e-05 -5.69862e-05     -46.1296 
         -50      63.7985 -7.24876e-05 -5.67721e-05     -46.1189 
         -50      64.1458  -7.2293e-05 -5.64357e-05     -46.1083 
         -50      64.4939 -7.20556e-05 -5.61215e-05     -46.0977 
         -50       64.843 -7.17536e-05 -5.58324e-05      -46.087 
         -50      65.1929 -7.13812e-05 -5.55714e-05     -46.0764 
         -50       65.544 -7.09482e-05 -5.53434e-05     -46.0658 
         -50      65.8959 -7.04822e-05 -5.51568e-05     -46.0552 
         -50      66.2487 -7.00297e-05 -5.50236e-05     -46.0447 
         -50      66.6025 -6.96553e-05 -5.49554e-05     -46.0341 
         -50      66.9573 -6.92465e-05 -5.47371e-05     -46.0235 
         -50       67.313 -6.88966e-05 -5.45972e-05      -46.013 
         -50      67.6695 -6.85945e-05 -5.45089e-05     -46.0025 
         -50      68.0271 -6.83309e-05 -5.44426e-05      -45.992 
         -50      68.3857 -6.80982e-05 -5.43673e-05     -45.9814 
         -50      68.7451 -6.78914e-05 -5.42517e-05      -45.971 
         -50      69.1055 -6.77079e-05  -5.4065e-05     -45.9605 
         -50      69.4669 -6.75479e-05 -5.37782e-05       -45.95 
         -50      69.8291 -6.72846e-05 -5.34094e-05     -45.9396 
         -50      70.1923 -6.66135e-05 -5.31779e-05     -45.9292 
         -50      70.5564 -6.60482e-05 -5.29728e-05     -45.9188 
         -50      70.9217 -6.55703e-05 -5.27775e-05     -45.9084 
         -50      71.2877 -6.51626e-05 -5.25806e-05      -45.898 
         -50      71.6546 -6.48083e-05 -5.23749e-05     -45.8877 
         -50      72.0225  -6.4492e-05 -5.21566e-05     -45.8774 
         -50      72.3915    -6.42e-05 -5.19244e-05     -45.8671 
         -50      72.7613 -6.39206e-05 -5.16793e-05     -45.8568 
         -50       73.132 -6.36438e-05 -5.14231e-05     -45.8465 
         -50      73.5036 -6.33622e-05 -5.11588e-05     -45.8363 
         -50      73.8764 -6.30701e-05  -5.0889e-05     -45.8261 
         -50      74.2499 -6.27647e-05 -5.06168e-05     -45.8159 
         -50      74.6244 -6.24452e-05 -5.03445e-05     -45.8057 
         -50           75 -6.21124e-05 -5.00736e-05     -45.7956 
         -25            0 -1.43732e-19   -7.693e-24     -45.9159 
         -25     0.000471 -1.40591e-05 -7.77413e-10     -45.9159 
         -25     0.001884 -4.98233e-05 -3.04718e-09     -45.9159 
         -25     0.004239  -9.1433e-05 -6.67692e-09     -45.9159 
         -25     0.007537 -0.000122018  -1.1605e-08     -45.9159 
         -25     0.011776 -0.000132731 -1.79899e-08     -45.9159 
         -25     0.016958 -0.000127294 -2.63122e-08     -45.9159 
         -25     0.023081 -0.000118601  -3.7333e-08     -45.9159 
         -25      0.03015 -0.000118541 -5.19738e-08     -45.9159 
         -25     0.038157 -0.000127498 -7.11091e-08     -45.9159 
         -25     0.047107  -0.00013349 -9.55661e-08     -45.9159 
         -25     0.056999 -0.000127527 -1.26233e-07     -45.9159 
         -25     0.067837 -0.000124209 -1.64277e-07     -45.9159 
         -25     0.079614    -0.000135 -2.10562e-07     -45.9159 
         -25     0.092332 -0.000128469 -2.65727e-07     -45.9159 
         -25     0.105992 -0.000129676 -3.31225e-07     -45.9159 
         -25       0.1206 -0.000128994 -4.07717e-07     -45.9159 
         -25     0.136145 -0.000128267 -4.95911e-07     -45.9159 
         -25     0.152631 -0.000127976 -5.96377e-07     -45.9159 
         -25     0.170067 -0.000127688 -7.09548e-07     -45.9159 
         -25     0.188438 -0.000126874  -8.3558e-07     -45.9159 
         -25     0.207751 -0.000125703 -9.74653e-07     -45.9159 
         -25     0.228006 -0.000124992 -1.12663e-06     -45.9159 
         -25     0.249212 -0.000123902 -1.29066e-06     -45.9159 
         -25     0.271351 -0.000122964 -1.46595e-06     -45.9159 
         -25     0.294433 -0.000121976 -1.65339e-06     -45.9159 
         -25     0.318456  -0.00012094 -1.85076e-06     -45.9159 
         -25     0.343432 -0.000119918 -2.05645e-06     -45.9159 
         -25     0.369339 -0.000118952 -2.26915e-06     -45.9159 
         -25     0.396189 -0.000118057 -2.48838e-06     -45.9159 
         -25     0.423981 -0.000117236 -2.71409e-06     -45.9159 
         -25     0.452726 -0.000116486 -2.94672e-06     -45.9159 
         -25     0.482403 -0.000115811 -3.18675e-06     -45.9159 
         -25     0.513021 -0.000115221 -3.43513e-06     -45.9159 
         -25     0.544594 -0.000114733 -3.69315e-06     -45.9158 
         -25     0.577096 -0.000114349 -3.96236e-06     -45.9158 
         -25     0.610541 -0.000114019 -4.24607e-06     -45.9158 
         -25     0.644927 -0.000113786  -4.5414e-06     -45.9158 
         -25      0.68027  -0.00011362 -4.83486e-06     -45.9158 
         -25     0.716541 -0.000113507 -5.12488e-06     -45.9158 
         -25     0.753754 -0.000113437 -5.41054e-06     -45.9158 
         -25     0.791909 -0.000113399 -5.69107e-06     -45.9157 
         -25     0.831022 -0.000113382 -5.96606e-06     -45.9157 
         -25     0.871061 -0.000113379 -6.23503e-06     -45.9157 
         -25     0.912043 -0.000113383 -6.49803e-06     -45.9157 
         -25     0.953966  -0.00011339 -6.75514e-06     -45.9157 
         -25     0.996849 -0.000113397 -7.00661e-06     -45.9156 
         -25      1.04066 -0.000113405 -7.25237e-06     -45.9156 
         -25      1.08541 -0.000113417 -7.49257e-06     -45.9156 
         -25      1.13112 -0.000113437 -7.72709e-06     -45.9156 
         -25      1.17775 -0.000113471 -7.95527e-06     -45.9155 
         -25      1.22533 -0.000113525 -8.17628e-06     -45.9155 
         -25      1.27384 -0.000113604 -8.38873e-06     -45.9155 