Variables = x, y, u, v, p

Zone, I=6400, F=POINT
         -50            0            0            0     -30.6318 
         -50     0.000471 -1.75679e-05 -1.19622e-09     -30.6318 
         -50     0.001884 -6.25007e-05 -4.78486e-09     -30.6318 
         -50     0.004239 -0.000115486 -1.07448e-08     -30.6318 
         -50     0.007537 -0.000155689 -1.89878e-08     -30.6318 
         -50     0.011776 -0.000171591  -2.9312e-08     -30.6318 
         -50     0.016958 -0.000166704 -4.14373e-08     -30.6318 
         -50     0.023081 -0.000155982  -5.5083e-08     -30.6318 
         -50      0.03015 -0.000154135 -7.01462e-08     -30.6318 
         -50     0.038157 -0.000163092 -8.67917e-08     -30.6318 
         -50     0.047107 -0.000170095 -1.05499e-07     -30.6318 
         -50     0.056999 -0.000164417 -1.26771e-07     -30.6318 
         -50     0.067837 -0.000161171 -1.50717e-07     -30.6318 
         -50     0.079614 -0.000174142 -1.76777e-07     -30.6318 
         -50     0.092332  -0.00016832 -2.05888e-07     -30.6318 
         -50     0.105992 -0.000170651 -2.38635e-07     -30.6318 
         -50       0.1206 -0.000171168 -2.75743e-07     -30.6318 
         -50     0.136145 -0.000171616 -3.18092e-07     -30.6318 
         -50     0.152631  -0.00017246 -3.66564e-07     -30.6318 
         -50     0.170067 -0.000173295 -4.22446e-07     -30.6318 
         -50     0.188438 -0.000173612 -4.87747e-07     -30.6318 
         -50     0.207751 -0.000173555 -5.65405e-07     -30.6317 
         -50     0.228006 -0.000173873 -6.58263e-07     -30.6317 
         -50     0.249212 -0.000173783 -7.66217e-07     -30.6317 
         -50     0.271351  -0.00017375 -8.96772e-07     -30.6317 
         -50     0.294433 -0.000173587 -1.04975e-06     -30.6317 
         -50     0.318456 -0.000173291 -1.21664e-06     -30.6317 
         -50     0.343432 -0.000172923 -1.38827e-06     -30.6317 
         -50     0.369339 -0.000172517 -1.55548e-06     -30.6317 
         -50     0.396189 -0.000172091 -1.71098e-06     -30.6317 
         -50     0.423981  -0.00017165 -1.85063e-06     -30.6317 
         -50     0.452726 -0.000171194 -1.97536e-06     -30.6317 
         -50     0.482403 -0.000170727 -2.09262e-06     -30.6317 
         -50     0.513021 -0.000170263   -2.218e-06     -30.6316 
         -50     0.544594 -0.000169818 -2.37575e-06     -30.6316 
         -50     0.577096 -0.000169398 -2.59795e-06     -30.6316 
         -50     0.610541 -0.000168961  -2.9205e-06     -30.6316 
         -50     0.644927  -0.00016857  -3.2425e-06     -30.6316 
         -50      0.68027 -0.000168184 -3.53299e-06     -30.6315 
         -50     0.716541 -0.000167794 -3.80156e-06     -30.6315 
         -50     0.753754 -0.000167392 -4.05559e-06     -30.6315 
         -50     0.791909 -0.000166972 -4.29983e-06     -30.6315 
         -50     0.831022  -0.00016653 -4.53687e-06     -30.6314 
         -50     0.871061 -0.000166065 -4.76721e-06     -30.6314 
         -50     0.912043 -0.000165576  -4.9904e-06     -30.6314 
         -50     0.953966 -0.000165066  -5.2053e-06     -30.6313 
         -50     0.996849  -0.00016454  -5.4111e-06     -30.6313 
         -50      1.04066 -0.000164005 -5.60769e-06     -30.6312 
         -50      1.08541 -0.000163468 -5.79684e-06     -30.6312 
         -50      1.13112 -0.000162938 -5.98246e-06     -30.6311 
         -50      1.17775 -0.000162426 -6.17044e-06     -30.6311 
         -50      1.22533 -0.000161942 -6.36872e-06      -30.631 
         -50      1.27384 -0.000161497  -6.5858e-06      -30.631 
         -50      1.32333   -0.0001611 -6.82871e-06     -30.6309 
         -50      1.37373 -0.000160762 -7.09906e-06     -30.6308 
         -50      1.42507 -0.000160489 -7.38836e-06     -30.6308 
         -50      1.47736  -0.00016029 -7.67022e-06     -30.6307 
         -50      1.53061 -0.000160109 -7.82869e-06     -30.6306 
         -50      1.58478 -0.000159823 -7.91723e-06     -30.6305 
         -50      1.63989 -0.000159536 -8.05217e-06     -30.6304 
         -50      1.69595 -0.000159316 -8.23258e-06     -30.6303 
         -50      1.75297 -0.000159216 -8.45474e-06     -30.6302 
         -50      1.81091 -0.000159269 -8.71196e-06     -30.6301 
         -50      1.86979  -0.00015949  -8.9953e-06       -30.63 
         -50      1.92964 -0.000159877 -9.29377e-06     -30.6299 
         -50       1.9904 -0.000160413 -9.59421e-06     -30.6298 
         -50      2.05211 -0.000161069 -9.88253e-06     -30.6297 
         -50      2.11476 -0.000161805 -1.01438e-05     -30.6295 
         -50      2.17838 -0.000162572 -1.03628e-05     -30.6294 
         -50      2.24291 -0.000163317 -1.05248e-05     -30.6293 
         -50      2.30839 -0.000163984 -1.06161e-05     -30.6291 
         -50       2.3748 -0.000164522 -1.06249e-05      -30.629 
         -50      2.44219 -0.000164883 -1.05417e-05     -30.6288 
         -50      2.51049  -0.00016503 -1.03602e-05     -30.6286 
         -50      2.57974 -0.000164937 -1.00779e-05     -30.6285 
         -50      2.64993 -0.000164596 -9.69629e-06     -30.6283 
         -50      2.72108 -0.000164013 -9.22126e-06     -30.6281 
         -50      2.79315 -0.000163217 -8.66414e-06     -30.6279 
         -50      2.86617 -0.000162254 -8.04045e-06     -30.6277 
         -50      2.94012 -0.000161189 -7.37038e-06     -30.6275 
         -50      3.01505   -0.0001601  -6.6777e-06     -30.6273 
         -50      3.09089 -0.000159078 -5.98985e-06      -30.627 
         -50      3.16767 -0.000158213 -5.33479e-06     -30.6268 
         -50      3.24542 -0.000157585  -4.7397e-06     -30.6265 
         -50      3.32409  -0.00015725 -4.22899e-06     -30.6263 
         -50       3.4037 -0.000157218 -3.81922e-06      -30.626 
         -50      3.48425  -0.00015743 -3.51571e-06     -30.6257 
         -50      3.56577 -0.000157727 -3.30676e-06     -30.6255 
         -50       3.6482 -0.000157812  -3.1573e-06     -30.6252 
         -50      3.73158 -0.000157206 -3.00051e-06     -30.6249 
         -50       3.8159 -0.000157021 -2.41491e-06     -30.6246 
         -50      3.90119 -0.000156741 -2.75208e-06     -30.6242 
         -50       3.9874 -0.000156432  -2.5606e-06     -30.6239 
         -50      4.07454 -0.000156275 -2.26368e-06     -30.6236 
         -50      4.16263 -0.000156251 -2.11476e-06     -30.6232 
         -50      4.25169 -0.000156338 -2.09608e-06     -30.6228 
         -50      4.34166   -0.0001565 -2.16791e-06     -30.6224 
         -50      4.43258  -0.00015669 -2.28103e-06     -30.6221 
         -50      4.52447 -0.000156866 -2.38808e-06     -30.6216 
         -50      4.61726 -0.000156992 -2.45307e-06     -30.6212 
         -50        4.711 -0.000157048 -2.45882e-06     -30.6208 
         -50      4.80569 -0.000157035 -2.41096e-06     -30.6204 
         -50      4.90135 -0.000156972 -2.33824e-06     -30.6199 
         -50      4.99791 -0.000156895 -2.28814e-06     -30.6194 
         -50      5.09542  -0.00015685 -2.31639e-06      -30.619 
         -50      5.19387  -0.00015688 -2.47009e-06     -30.6185 
         -50       5.2933 -0.000157007 -2.76266e-06     -30.6179 
         -50      5.39364 -0.000157205 -3.13896e-06     -30.6174 
         -50      5.49491 -0.000157367 -3.43097e-06     -30.6169 
         -50      5.59713 -0.000157262 -3.30009e-06     -30.6163 
         -50      5.70033 -0.000156994 -3.84111e-06     -30.6158 
         -50      5.80443 -0.000156874 -4.50297e-06     -30.6152 
         -50      5.90948 -0.000156648 -4.63428e-06     -30.6146 
         -50      6.01551 -0.000156363 -4.76357e-06      -30.614 
         -50      6.12244 -0.000156093 -5.07882e-06     -30.6133 
         -50      6.23031 -0.000155914 -5.54746e-06     -30.6127 
         -50      6.33912 -0.000155866 -6.02726e-06      -30.612 
         -50      6.44892 -0.000155911 -6.36454e-06     -30.6113 
         -50      6.55962 -0.000155888 -6.47482e-06     -30.6106 
         -50      6.67126 -0.000155456 -6.40284e-06     -30.6099 
         -50      6.78384 -0.000155005 -6.40602e-06     -30.6092 
         -50      6.89741 -0.000155255 -6.55578e-06     -30.6084 
         -50      7.01187 -0.000155306 -6.73969e-06     -30.6077 
         -50      7.12728 -0.000155213 -6.95221e-06     -30.6069 
         -50      7.24363 -0.000155023 -7.18637e-06     -30.6061 
         -50      7.36097 -0.000154777   -7.437e-06     -30.6052 
         -50       7.4792  -0.00015451 -7.70238e-06     -30.6044 
         -50      7.59838 -0.000154249 -7.98586e-06     -30.6035 
         -50      7.71854 -0.000154023 -8.29521e-06     -30.6026 
         -50       7.8396 -0.000153864 -8.64042e-06     -30.6017 
         -50      7.96161 -0.000153813 -9.03069e-06     -30.6008 
         -50      8.08455 -0.000153755 -9.39089e-06     -30.5998 
         -50      8.20849 -0.000153206 -9.63809e-06     -30.5989 
         -50      8.33332 -0.000152903 -1.00682e-05     -30.5979 
         -50      8.45909 -0.000152776 -1.05098e-05     -30.5969 
         -50       8.5858 -0.000152753 -1.08424e-05     -30.5958 
         -50      8.71351 -0.000152766 -1.10123e-05     -30.5948 
         -50       8.8421 -0.000152763 -1.10404e-05     -30.5937 
         -50      8.97164 -0.000152717 -1.10194e-05     -30.5926 
         -50      9.10212 -0.000152641 -1.10999e-05     -30.5915 
         -50       9.2336 -0.000152594 -1.14633e-05     -30.5903 
         -50      9.36596 -0.000152676 -1.21555e-05     -30.5891 
         -50      9.49927 -0.000152663 -1.23038e-05     -30.5879 
         -50      9.63352 -0.000152557 -1.26531e-05     -30.5867 
         -50      9.76877 -0.000152374 -1.30998e-05     -30.5855 
         -50       9.9049 -0.000152131 -1.35712e-05     -30.5842 
         -50       10.042 -0.000151846 -1.40215e-05     -30.5829 
         -50      10.1801 -0.000151532 -1.44269e-05     -30.5816 
         -50       10.319 -0.000151204 -1.47797e-05     -30.5803 
         -50      10.4589 -0.000150877 -1.50847e-05     -30.5789 
         -50      10.5998  -0.00015056 -1.53548e-05     -30.5775 
         -50      10.7416 -0.000150265 -1.56069e-05     -30.5761 
         -50      10.8843     -0.00015 -1.58585e-05     -30.5746 
         -50       11.028 -0.000149772 -1.61252e-05     -30.5731 
         -50      11.1726 -0.000149582 -1.64185e-05     -30.5716 
         -50      11.3182 -0.000149431 -1.67452e-05     -30.5701 
         -50      11.4647 -0.000149312 -1.71061e-05     -30.5685 
         -50      11.6122 -0.000149215 -1.74982e-05      -30.567 
         -50      11.7605 -0.000149122 -1.79168e-05     -30.5653 
         -50      11.9099 -0.000149005  -1.8359e-05     -30.5637 
         -50      12.0602 -0.000148829 -1.88288e-05      -30.562 
         -50      12.2114 -0.000148545 -1.93456e-05     -30.5603 
         -50      12.3636 -0.000148091 -1.99528e-05     -30.5586 
         -50      12.5167 -0.000147386 -2.07288e-05     -30.5568 
         -50      12.6707 -0.000146823 -2.13921e-05     -30.5551 
         -50      12.8257 -0.000147035 -2.13636e-05     -30.5532 
         -50      12.9817 -0.000147197 -2.16964e-05     -30.5514 
         -50      13.1386 -0.000147252 -2.22411e-05     -30.5495 
         -50      13.2964 -0.000147153 -2.27826e-05     -30.5476 
         -50      13.4551 -0.000146955 -2.33239e-05     -30.5457 
         -50      13.6149   -0.0001467 -2.38619e-05     -30.5437 
         -50      13.7755 -0.000146422 -2.43887e-05     -30.5417 
         -50      13.9371 -0.000146143 -2.48959e-05     -30.5396 
         -50      14.0996 -0.000145878 -2.53759e-05     -30.5376 
         -50      14.2631 -0.000145633  -2.5824e-05     -30.5355 
         -50      14.4275 -0.000145407 -2.62391e-05     -30.5334 
         -50      14.5928 -0.000145196 -2.66257e-05     -30.5312 
         -50      14.7592 -0.000144991 -2.69932e-05      -30.529 
         -50      14.9264 -0.000144781 -2.73552e-05     -30.5268 
         -50      15.0946 -0.000144556 -2.77293e-05     -30.5245 
         -50      15.2637 -0.000144304 -2.81338e-05     -30.5222 
         -50      15.4338 -0.000144019 -2.85855e-05     -30.5199 
         -50      15.6048 -0.000143701 -2.90942e-05     -30.5175 
         -50      15.7767 -0.000143355  -2.9659e-05     -30.5151 
         -50      15.9496 -0.000142996 -3.02605e-05     -30.5127 
         -50      16.1235 -0.000142654 -3.08536e-05     -30.5102 
         -50      16.2982  -0.00014237 -3.13565e-05     -30.5077 
         -50      16.4739 -0.000142204 -3.16417e-05     -30.5052 
         -50      16.6506 -0.000142238 -3.15213e-05     -30.5026 
         -50      16.8282  -0.00014166 -3.19208e-05        -30.5 
         -50      17.0068 -0.000141068 -3.24983e-05     -30.4974 
         -50      17.1862 -0.000140667  -3.2955e-05     -30.4947 
         -50      17.3667 -0.000140394  -3.3302e-05      -30.492 
         -50      17.5481 -0.000140197 -3.35641e-05     -30.4893 
         -50      17.7304 -0.000140039 -3.37755e-05     -30.4865 
         -50      17.9136  -0.00013989  -3.3973e-05     -30.4837 
         -50      18.0979 -0.000139728 -3.41925e-05     -30.4808 
         -50       18.283 -0.000139539  -3.4464e-05      -30.478 
         -50      18.4691 -0.000139317 -3.48093e-05      -30.475 
         -50      18.6561 -0.000139055 -3.52388e-05     -30.4721 
         -50      18.8441 -0.000138752 -3.57505e-05     -30.4691 
         -50       19.033 -0.000138409 -3.63286e-05      -30.466 
         -50      19.2228 -0.000138028 -3.69459e-05      -30.463 
         -50      19.4136 -0.000137609 -3.75647e-05     -30.4599 
         -50      19.6054 -0.000137154 -3.81406e-05     -30.4567 
         -50       19.798 -0.000136662 -3.86273e-05     -30.4536 
         -50      19.9917 -0.000136133 -3.89841e-05     -30.4503 
         -50      20.1862 -0.000135564 -3.91843e-05     -30.4471 
         -50      20.3818 -0.000135087 -3.94168e-05     -30.4438 
         -50      20.5782 -0.000134778 -3.99676e-05     -30.4405 
         -50      20.7756 -0.000134558 -4.07102e-05     -30.4371 
         -50       20.974 -0.000134422 -4.15579e-05     -30.4337 
         -50      21.1732 -0.000134337 -4.23941e-05     -30.4303 
         -50      21.3734 -0.000134431   -4.222e-05     -30.4268 
         -50      21.5745 -0.000134021 -4.22587e-05     -30.4233 
         -50      21.7767 -0.000133137 -4.26778e-05     -30.4197 
         -50      21.9797 -0.000132106 -4.32381e-05     -30.4162 
         -50      22.1837 -0.000132128 -4.35266e-05     -30.4125 
         -50      22.3886 -0.000132039 -4.37139e-05     -30.4089 
         -50      22.5945 -0.000131857 -4.38464e-05     -30.4052 
         -50      22.8013 -0.000131595 -4.39792e-05     -30.4014 
         -50      23.0091 -0.000131263 -4.41624e-05     -30.3977 
         -50      23.2177 -0.000130872 -4.44288e-05     -30.3938 
         -50      23.4274 -0.000130429 -4.47879e-05       -30.39 
         -50       23.638 -0.000129944 -4.52221e-05     -30.3861 
         -50      23.8495 -0.000129428   -4.569e-05     -30.3822 
         -50       24.062 -0.000128893 -4.61336e-05     -30.3782 
         -50      24.2754 -0.000128357  -4.6491e-05     -30.3742 
         -50      24.4897  -0.00012784 -4.67178e-05     -30.3702 
         -50       24.705 -0.000127367 -4.68125e-05     -30.3661 
         -50      24.9213 -0.000126971 -4.68513e-05      -30.362 
         -50      25.1385 -0.000126691 -4.70305e-05     -30.3579 
         -50      25.3566 -0.000126571  -4.7717e-05     -30.3537 
         -50      25.5756 -0.000126182 -4.79474e-05     -30.3495 
         -50      25.7957 -0.000125776 -4.78108e-05     -30.3452 
         -50      26.0166 -0.000125512 -4.80184e-05     -30.3409 
         -50      26.2385 -0.000125227 -4.84369e-05     -30.3366 
         -50      26.4613 -0.000124839 -4.89611e-05     -30.3322 
         -50      26.6851 -0.000124348 -4.94912e-05     -30.3278 
         -50      26.9098 -0.000123819 -4.99161e-05     -30.3233 
         -50      27.1354 -0.000123358 -5.01059e-05     -30.3189 
         -50      27.3621 -0.000123062 -4.99118e-05     -30.3143 
         -50      27.5896 -0.000122844 -4.95662e-05     -30.3098 
         -50      27.8181 -0.000122282 -5.02847e-05     -30.3052 
         -50      28.0475 -0.000121747 -5.08575e-05     -30.3006 
         -50      28.2779 -0.000121229 -5.13123e-05     -30.2959 
         -50      28.5092 -0.000120723 -5.16734e-05     -30.2912 
         -50      28.7414 -0.000120226 -5.19621e-05     -30.2865 
         -50      28.9746 -0.000119735 -5.21967e-05     -30.2817 
         -50      29.2088  -0.00011925 -5.23923e-05     -30.2769 
         -50      29.4439 -0.000118772 -5.25612e-05     -30.2721 
         -50      29.6799 -0.000118303  -5.2713e-05     -30.2672 
         -50      29.9168 -0.000117844 -5.28549e-05     -30.2623 
         -50      30.1548 -0.000117394 -5.29918e-05     -30.2574 
         -50      30.3936 -0.000116957 -5.31262e-05     -30.2524 
         -50      30.6334  -0.00011653 -5.32594e-05     -30.2474 
         -50      30.8742 -0.000116113 -5.33908e-05     -30.2424 
         -50      31.1158 -0.000115705 -5.35186e-05     -30.2373 
         -50      31.3584 -0.000115301 -5.36405e-05     -30.2322 
         -50       31.602 -0.000114898 -5.37537e-05      -30.227 
         -50      31.8465 -0.000114491 -5.38554e-05     -30.2219 
         -50      32.0919 -0.000114077 -5.39432e-05     -30.2167 
         -50      32.3383 -0.000113649 -5.40159e-05     -30.2114 
         -50      32.5856 -0.000113204  -5.4074e-05     -30.2061 
         -50       32.834 -0.000112739 -5.41198e-05     -30.2008 
         -50      33.0831 -0.000112254 -5.41589e-05     -30.1955 
         -50      33.3333 -0.000111751 -5.42001e-05     -30.1901 
         -50      33.5843 -0.000111237 -5.42565e-05     -30.1847 
         -50      33.8364 -0.000110724 -5.43464e-05     -30.1793 
         -50      34.0894 -0.000110232 -5.44938e-05     -30.1738 
         -50      34.3433 -0.000109788 -5.47298e-05     -30.1683 
         -50      34.5981 -0.000109431  -5.5093e-05     -30.1628 
         -50       34.854 -0.000109213  -5.5631e-05     -30.1573 
         -50      35.1107 -0.000108517 -5.55047e-05     -30.1517 
         -50      35.3684 -0.000107616 -5.52992e-05     -30.1461 
         -50      35.6271 -0.000107035 -5.54816e-05     -30.1404 
         -50      35.8867 -0.000106941 -5.60985e-05     -30.1348 
         -50      36.1472 -0.000106725 -5.67254e-05     -30.1291 
         -50      36.4086 -0.000106363 -5.73233e-05     -30.1233 
         -50      36.6711 -0.000105841 -5.78591e-05     -30.1176 
         -50      36.9344 -0.000105185 -5.78601e-05     -30.1118 
         -50      37.1987 -0.000104548 -5.71721e-05      -30.106 
         -50      37.4639 -0.000103958 -5.66186e-05     -30.1002 
         -50      37.7301 -0.000103412 -5.62066e-05     -30.0943 
         -50      37.9972 -0.000102907  -5.5934e-05     -30.0884 
         -50      38.2652 -0.000102434 -5.57905e-05     -30.0825 
         -50      38.5342 -0.000101984 -5.57605e-05     -30.0765 
         -50      38.8042  -0.00010155 -5.58247e-05     -30.0706 
         -50      39.0751 -0.000101122 -5.59616e-05     -30.0646 
         -50      39.3469 -0.000100692 -5.61493e-05     -30.0586 
         -50      39.6197 -0.000100256 -5.63667e-05     -30.0525 
         -50      39.8934 -9.98085e-05 -5.65946e-05     -30.0464 
         -50       40.168 -9.93488e-05 -5.68166e-05     -30.0404 
         -50      40.4436 -9.88777e-05 -5.70203e-05     -30.0342 
         -50      40.7202 -9.83985e-05  -5.7197e-05     -30.0281 
         -50      40.9977 -9.79168e-05 -5.73422e-05     -30.0219 
         -50      41.2761 -9.74395e-05 -5.74557e-05     -30.0158 
         -50      41.5554 -9.69743e-05 -5.75407e-05     -30.0096 
         -50      41.8358 -9.65291e-05 -5.76035e-05     -30.0033 
         -50       42.117 -9.61106e-05 -5.76519e-05     -29.9971 
         -50      42.3992 -9.57227e-05 -5.76941e-05     -29.9908 
         -50      42.6823  -9.5365e-05 -5.77364e-05     -29.9845 
         -50      42.9664 -9.50304e-05 -5.77811e-05     -29.9782 
         -50      43.2514 -9.47037e-05 -5.78234e-05     -29.9719 
         -50      43.5373 -9.43579e-05 -5.78484e-05     -29.9655 
         -50      43.8243 -9.39514e-05 -5.78271e-05     -29.9592 
         -50      44.1121 -9.34255e-05 -5.77118e-05     -29.9528 
         -50      44.4009 -9.27899e-05   -5.771e-05     -29.9464 
         -50      44.6906  -9.2197e-05 -5.79144e-05     -29.9399 
         -50      44.9813 -9.16375e-05 -5.80811e-05     -29.9335 
         -50      45.2729  -9.1118e-05 -5.81846e-05      -29.927 
         -50      45.5654 -9.06387e-05 -5.82146e-05     -29.9206 
         -50      45.8589  -9.0196e-05 -5.81764e-05     -29.9141 
         -50      46.1534 -8.97838e-05 -5.80911e-05     -29.9076 
         -50      46.4488 -8.93958e-05 -5.79963e-05      -29.901 
         -50      46.7451 -8.90264e-05 -5.79458e-05     -29.8945 
         -50      47.0423 -8.86731e-05 -5.80099e-05     -29.8879 
         -50      47.3406 -8.82902e-05 -5.81977e-05     -29.8814 
         -50      47.6397 -8.77036e-05 -5.81407e-05     -29.8748 
         -50      47.9398 -8.71487e-05 -5.81209e-05     -29.8682 
         -50      48.2409  -8.6621e-05 -5.81267e-05     -29.8616 
         -50      48.5428 -8.61178e-05 -5.81469e-05     -29.8549 
         -50      48.8457 -8.56368e-05 -5.81715e-05     -29.8483 
         -50      49.1496 -8.51762e-05 -5.81918e-05     -29.8416 
         -50      49.4545 -8.47339e-05 -5.82005e-05      -29.835 
         -50      49.7602 -8.43082e-05 -5.81918e-05     -29.8283 
         -50      50.0668 -8.38965e-05 -5.81619e-05     -29.8216 
         -50      50.3744 -8.34959e-05 -5.81085e-05     -29.8149 
         -50      50.6831 -8.31027e-05 -5.80313e-05     -29.8082 
         -50      50.9926 -8.27136e-05 -5.79317e-05     -29.8015 
         -50       51.303 -8.23244e-05 -5.78124e-05     -29.7948 
         -50      51.6144 -8.19317e-05 -5.76778e-05      -29.788 
         -50      51.9268 -8.15323e-05 -5.75331e-05     -29.7813 
         -50        52.24 -8.11254e-05 -5.73844e-05     -29.7745 
         -50      52.5542 -8.07114e-05  -5.7238e-05     -29.7678 
         -50      52.8694 -8.02944e-05 -5.70996e-05      -29.761 
         -50      53.1856 -7.98823e-05 -5.69744e-05     -29.7542 
         -50      53.5026 -7.94893e-05 -5.68656e-05     -29.7474 
         -50      53.8205 -7.91358e-05  -5.6774e-05     -29.7406 
         -50      54.1396 -7.88511e-05 -5.66968e-05     -29.7338 
         -50      54.4594  -7.8675e-05 -5.66268e-05      -29.727 
         -50      54.7802 -7.86597e-05 -5.65509e-05     -29.7202 
         -50      55.1019 -7.80821e-05  -5.6313e-05     -29.7134 
         -50      55.4247 -7.74591e-05 -5.60908e-05     -29.7066 
         -50      55.7483  -7.6904e-05 -5.59029e-05     -29.6998 
         -50      56.0729 -7.64048e-05 -5.57393e-05      -29.693 
         -50      56.3984 -7.59504e-05 -5.55916e-05     -29.6861 
         -50       56.725 -7.55301e-05 -5.54532e-05     -29.6793 
         -50      57.0523 -7.51348e-05  -5.5319e-05     -29.6725 
         -50      57.3807  -7.4756e-05 -5.51852e-05     -29.6656 
         -50      57.7099 -7.43862e-05 -5.50492e-05     -29.6588 
         -50      58.0403 -7.40193e-05 -5.49098e-05     -29.6519 
         -50      58.3714 -7.36508e-05 -5.47666e-05     -29.6451 
         -50      58.7035 -7.32771e-05 -5.46201e-05     -29.6383 
         -50      59.0367 -7.28961e-05 -5.44714e-05     -29.6314 
         -50      59.3707 -7.25073e-05 -5.43225e-05     -29.6246 
         -50      59.7056  -7.2111e-05 -5.41754e-05     -29.6177 
         -50      60.0414 -7.17089e-05 -5.40325e-05     -29.6109 
         -50      60.3784 -7.13034e-05 -5.38961e-05      -29.604 
         -50      60.7161 -7.08984e-05 -5.37685e-05     -29.5972 
         -50      61.0548 -7.04978e-05 -5.36513e-05     -29.5904 
         -50      61.3944 -7.01061e-05 -5.35457e-05     -29.5835 
         -50      61.7351 -6.97274e-05 -5.34519e-05     -29.5767 
         -50      62.0767 -6.93664e-05 -5.33692e-05     -29.5699 
         -50      62.4191 -6.90263e-05 -5.32955e-05      -29.563 
         -50      62.7625 -6.87091e-05 -5.32269e-05     -29.5562 
         -50       63.107 -6.84154e-05 -5.31578e-05     -29.5494 
         -50      63.4523 -6.81434e-05 -5.30805e-05     -29.5426 
         -50      63.7985 -6.78883e-05 -5.29846e-05     -29.5358 
         -50      64.1458 -6.73751e-05 -5.26912e-05      -29.529 
         -50      64.4939 -6.69532e-05 -5.24407e-05     -29.5222 
         -50       64.843 -6.66071e-05 -5.22343e-05     -29.5154 
         -50      65.1929 -6.63229e-05 -5.20544e-05     -29.5086 
         -50       65.544 -6.60906e-05 -5.18691e-05     -29.5018 
         -50      65.8959 -6.59039e-05 -5.16359e-05      -29.495 
         -50      66.2487 -6.57583e-05 -5.13048e-05     -29.4882 
         -50      66.6025 -6.56422e-05  -5.0833e-05     -29.4815 
         -50      66.9573 -6.52053e-05 -5.07116e-05     -29.4747 
         -50       67.313 -6.47647e-05 -5.05571e-05      -29.468 
         -50      67.6695  -6.4327e-05 -5.03732e-05     -29.4613 
         -50      68.0271 -6.38996e-05 -5.01666e-05     -29.4545 
         -50      68.3857 -6.34897e-05 -4.99466e-05     -29.4478 
         -50      68.7451 -6.31053e-05 -4.97245e-05     -29.4411 
         -50      69.1055  -6.2753e-05 -4.95124e-05     -29.4344 
         -50      69.4669 -6.24392e-05 -4.93225e-05     -29.4277 
         -50      69.8291 -6.21378e-05 -4.91398e-05      -29.421 
         -50      70.1923 -6.17474e-05 -4.88894e-05     -29.4144 
         -50      70.5564 -6.13751e-05  -4.8665e-05     -29.4077 
         -50      70.9217 -6.10215e-05 -4.84621e-05     -29.4011 
         -50      71.2877 -6.06866e-05  -4.8276e-05     -29.3944 
         -50      71.6546 -6.03696e-05 -4.81015e-05     -29.3878 
         -50      72.0225 -6.00691e-05 -4.79339e-05     -29.3812 
         -50      72.3915 -5.97829e-05 -4.77685e-05     -29.3746 
         -50      72.7613 -5.95094e-05 -4.76012e-05     -29.3681 
         -50       73.132  -5.9246e-05 -4.74284e-05     -29.3615 
         -50      73.5036 -5.89904e-05 -4.72472e-05     -29.3549 
         -50      73.8764   -5.874e-05 -4.70554e-05     -29.3484 
         -50      74.2499 -5.84927e-05 -4.68519e-05     -29.3419 
         -50      74.6244 -5.82463e-05 -4.66362e-05     -29.3354 
         -50           75 -5.79987e-05 -4.64086e-05     -29.3289 
         -25            0 -1.32172e-19 -4.90588e-24     -29.4058 
         -25     0.000471 -1.29472e-05 -5.03484e-10     -29.4058 
         -25     0.001884 -4.60915e-05  -2.0606e-09     -29.4058 
         -25     0.004239 -8.52726e-05 -4.80396e-09     -29.4058 
         -25     0.007537 -0.000115211 -8.93651e-09     -29.4058 
         -25     0.011776  -0.00012745 -1.47131e-08     -29.4058 
         -25     0.016958 -0.000124546  -2.2455e-08     -29.4058 
         -25     0.023081 -0.000117439 -3.25708e-08     -29.4058 
         -25      0.03015  -0.00011689 -4.56263e-08     -29.4058 
         -25     0.038157 -0.000124288 -6.23521e-08     -29.4058 
         -25     0.047107 -0.000130265 -8.36853e-08     -29.4058 
         -25     0.056999  -0.00012694 -1.10638e-07     -29.4058 
         -25     0.067837 -0.000125369 -1.44144e-07     -29.4058 
         -25     0.079614 -0.000135639 -1.84863e-07     -29.4058 
         -25     0.092332 -0.000132079 -2.34043e-07     -29.4058 
         -25     0.105992 -0.000134428 -2.92942e-07     -29.4058 
         -25       0.1206 -0.000135373 -3.62505e-07     -29.4058 
         -25     0.136145 -0.000136192 -4.43696e-07     -29.4058 
         -25     0.152631 -0.000137223 -5.37489e-07     -29.4058 
         -25     0.170067 -0.000138175 -6.44814e-07     -29.4058 
         -25     0.188438  -0.00013868 -7.66373e-07     -29.4058 
         -25     0.207751 -0.000138852 -9.02899e-07     -29.4058 
         -25     0.228006 -0.000139249 -1.05495e-06     -29.4058 
         -25     0.249212 -0.000139309 -1.22293e-06     -29.4058 
         -25     0.271351 -0.000139386 -1.40708e-06     -29.4058 
         -25     0.294433 -0.000139355 -1.60832e-06     -29.4058 
         -25     0.318456 -0.000139226 -1.82582e-06     -29.4058 
         -25     0.343432 -0.000139053 -2.06011e-06     -29.4058 
         -25     0.369339 -0.000138874 -2.31228e-06     -29.4058 
         -25     0.396189 -0.000138712 -2.58414e-06     -29.4058 
         -25     0.423981 -0.000138582 -2.87701e-06     -29.4058 
         -25     0.452726 -0.000138493 -3.19132e-06     -29.4058 
         -25     0.482403 -0.000138457 -3.52555e-06     -29.4058 
         -25     0.513021 -0.000138488 -3.87684e-06     -29.4058 
         -25     0.544594   -0.0001386 -4.24143e-06     -29.4058 
         -25     0.577096 -0.000138797 -4.61619e-06     -29.4057 
         -25     0.610541 -0.000139035 -5.00259e-06     -29.4057 
         -25     0.644927 -0.000139334 -5.38129e-06     -29.4057 
         -25      0.68027 -0.000139672  -5.7705e-06     -29.4057 
         -25     0.716541 -0.000140012 -6.16928e-06     -29.4057 
         -25     0.753754  -0.00014032 -6.57657e-06     -29.4057 
         -25     0.791909 -0.000140565 -6.99056e-06     -29.4057 
         -25     0.831022 -0.000140721 -7.40919e-06     -29.4057 
         -25     0.871061 -0.000140767 -7.82949e-06     -29.4057 
         -25     0.912043 -0.000140688 -8.24879e-06     -29.4057 
         -25     0.953966 -0.000140473 -8.66414e-06     -29.4056 
         -25     0.996849  -0.00014012 -9.07291e-06     -29.4056 
         -25      1.04066 -0.000139632  -9.4722e-06     -29.4056 
         -25      1.08541 -0.000139016 -9.86006e-06     -29.4056 
         -25      1.13112 -0.000138286  -1.0235e-05     -29.4056 
         -25      1.17775 -0.000137458 -1.05957e-05     -29.4056 
         -25      1.22533 -0.000136554 -1.09417e-05     -29.4055 
         -25      1.27384 -0.000135593 -1.12728e-05     -29.4055 