Variables = x, y, u, v, p

Zone, I=416, F=POINT
         -50            0            0            0      155.899 
         -50     0.013333  0.000276783  8.18801e-08      155.899 
         -50     0.053333   0.00024872  1.88664e-07      155.899 
         -50         0.12  0.000242582  1.73039e-07      155.899 
         -50     0.213332   0.00024515 -1.56824e-07      155.899 
         -50     0.333332  0.000249898 -7.11336e-07      155.899 
         -50         0.48  0.000251327 -1.61436e-06      155.899 
         -50     0.653331  0.000250437  -2.0781e-06      155.898 
         -50     0.853332  0.000250276 -2.23805e-06      155.898 
         -50         1.08  0.000251161  -2.2139e-06      155.896 
         -50      1.33333   0.00025191 -1.48839e-06      155.895 
         -50      1.61333  0.000252996 -3.73176e-07      155.893 
         -50         1.92  0.000255374  2.11664e-06       155.89 
         -50      2.25333  0.000260253  4.95964e-06      155.887 
         -50      2.61333  0.000265236  8.49223e-06      155.882 
         -50            3   0.00026671  1.30653e-05      155.877 
         -25            0           -0           -0      149.716 
         -25     0.013333  0.000205153  3.94053e-08      149.716 
         -25     0.053333  0.000187189  2.17722e-07      149.716 
         -25         0.12  0.000180027  7.11983e-07      149.716 
         -25     0.213332  0.000174744  1.57045e-06      149.716 
         -25     0.333332  0.000172375  2.70052e-06      149.716 
         -25         0.48  0.000172697  4.08976e-06      149.716 
         -25     0.653331  0.000176743  5.82363e-06      149.716 
         -25     0.853332  0.000183397  7.84289e-06      149.715 
         -25         1.08  0.000187859  9.88694e-06      149.715 
         -25      1.33333  0.000188769  1.14553e-05      149.715 
         -25      1.61333  0.000189668  1.28035e-05      149.714 
         -25         1.92  0.000191881  1.30084e-05      149.713 
         -25      2.25333  0.000191171   1.2653e-05      149.711 
         -25      2.61333  0.000184002  1.04105e-05       149.71 
         -25            3  0.000172419  5.10758e-06      149.708 
           0            0            0            0      144.555 
           0     0.013333   0.00053713  -0.00036055      144.561 
           0     0.053333  0.000360704  -0.00018613      144.572 
           0         0.12  0.000296229 -0.000132526      144.584 
           0     0.213332  0.000266627 -0.000104281      144.596 
           0     0.333332  0.000251201 -8.79403e-05      144.609 
           0         0.48  0.000237367  -7.5711e-05      144.623 
           0     0.653331  0.000223847 -6.66124e-05      144.636 
           0     0.853332  0.000208363 -5.97119e-05      144.649 
           0         1.08  0.000192846 -5.42717e-05      144.662 
           0      1.33333  0.000180085   -4.961e-05      144.675 
           0      1.61333  0.000169973 -4.53247e-05      144.687 
           0         1.92  0.000163167 -4.10546e-05      144.699 
           0      2.25333  0.000158482 -3.65799e-05       144.71 
           0      2.61333  0.000154675 -3.23168e-05      144.721 
           0            3  0.000148659 -3.18351e-05      144.731 
          20            0   0.00019954  -0.00016382       141.64 
          20     0.013333  0.000199738 -0.000163854       141.64 
          20     0.053333   0.00020075 -0.000163817       141.64 
          20         0.12  0.000204013 -0.000163279       141.64 
          20     0.213332  0.000212324 -0.000161546      141.639 
          20     0.333332  0.000229751 -0.000157769      141.639 
          20         0.48  0.000253458 -0.000151301      141.639 
          20     0.653331   0.00026913 -0.000142165      141.638 
          20     0.853332  0.000260272 -0.000131231      141.637 
          20         1.08    0.0002203 -0.000119321      141.636 
          20      1.33333  0.000166687 -0.000106549      141.635 
          20      1.61333  0.000112923 -9.27773e-05      141.634 
          20         1.92  6.57127e-05 -7.84609e-05      141.632 
          20      2.25333  3.26305e-05 -6.40955e-05      141.631 
          20      2.61333  1.93285e-05 -5.02999e-05      141.629 
          20            3  2.31333e-05 -3.69211e-05      141.626 
          40            0           -0           -0      138.512 
          40     0.013333  0.000619437  1.07485e-07      138.512 
          40     0.053333    0.0016816  3.19117e-06      138.512 
          40         0.12   0.00261161  2.42103e-05      138.512 
          40     0.213332   0.00291931  8.81913e-05      138.512 
          40     0.333332   0.00285105  0.000208041      138.512 
          40         0.48   0.00276832  0.000369555      138.512 
          40     0.653331   0.00256383  0.000541466      138.512 
          40     0.853332   0.00226099  0.000721627      138.512 
          40         1.08   0.00197881  0.000910897      138.512 
          40      1.33333   0.00144465   0.00106734      138.511 
          40      1.61333  0.000768625    0.0011639      138.511 
          40         1.92  0.000151343   0.00119414       138.51 
          40      2.25333 -0.000311409   0.00116041      138.509 
          40      2.61333 -0.000574567   0.00107983      138.508 
          40            3 -0.000652431  0.000971441      138.507 
          60            0            0            0      135.414 
          60     0.013333  0.000315589  1.98204e-07      135.414 
          60     0.053333  0.000690187   3.0943e-06      135.414 
          60         0.12   0.00101674  1.50035e-05      135.414 
          60     0.213332    0.0011136  4.32173e-05      135.414 
          60     0.333332   0.00103126  9.18279e-05      135.414 
          60         0.48  0.000953585  0.000160735      135.414 
          60     0.653331   0.00100821  0.000246648      135.414 
          60     0.853332   0.00113436  0.000342108      135.413 
          60         1.08   0.00118423   0.00043904      135.413 
          60      1.33333    0.0010569   0.00052644      135.413 
          60      1.61333  0.000758843  0.000590846      135.413 
          60         1.92  0.000425978  0.000621342      135.413 
          60      2.25333  0.000154571  0.000618346      135.413 
          60      2.61333 -2.68155e-05  0.000588659      135.413 
          60            3 -0.000143637  0.000539051      135.412 
          80            0            0            0       132.45 
          80     0.013333  0.000175348 -1.56746e-07       132.45 
          80     0.053333   0.00029954 -2.32993e-06       132.45 
          80         0.12  0.000558214 -1.01195e-05       132.45 
          80     0.213332  0.000881862 -2.54736e-05       132.45 
          80     0.333332   0.00114906  -4.6285e-05       132.45 
          80         0.48   0.00128696 -6.80208e-05       132.45 
          80     0.653331   0.00130962 -8.69296e-05       132.45 
          80     0.853332   0.00125994 -0.000102069       132.45 
          80         1.08   0.00110754 -0.000118186       132.45 
          80      1.33333  0.000843815 -0.000139816       132.45 
          80      1.61333   0.00058517  -0.00015981       132.45 
          80         1.92  0.000321266 -0.000172333       132.45 
          80      2.25333    0.0001039 -0.000176682       132.45 
          80      2.61333 -5.09057e-05 -0.000172824       132.45 
          80            3 -0.000147123 -0.000162431      132.449 
         100            0            0            0      129.555 
         100     0.013333  4.56581e-05 -3.20569e-07      129.555 
         100     0.053333 -0.000114127 -4.93981e-06      129.555 
         100         0.12 -9.11672e-05 -2.27451e-05      129.555 
         100     0.213332  0.000168769 -6.12049e-05      129.555 
         100     0.333332  0.000496734 -0.000120252      129.555 
         100         0.48  0.000689381 -0.000194729      129.555 
         100     0.653331  0.000653136 -0.000280103      129.555 
         100     0.853332  0.000463106 -0.000369395      129.555 
         100         1.08  0.000344945 -0.000449048      129.555 
         100      1.33333  0.000328757 -0.000511786      129.555 
         100      1.61333   0.00027874 -0.000558938      129.554 
         100         1.92   0.00018891 -0.000584182      129.554 
         100      2.25333  0.000119339 -0.000584158      129.554 
         100      2.61333  7.06093e-05 -0.000561027      129.554 
         100            3  3.42721e-05 -0.000519996      129.554 
         150            0           -0           -0      122.466 
         150     0.013333  5.06434e-05  9.38424e-08      122.466 
         150     0.053333 -0.000187185  1.13115e-06      122.466 
         150         0.12 -0.000469723  3.38724e-06      122.466 
         150     0.213332 -0.000675796  4.11388e-06      122.466 
         150     0.333332 -0.000751428 -6.19541e-07      122.466 
         150         0.48 -0.000748697  -1.1783e-05      122.466 
         150     0.653331 -0.000719441 -2.62166e-05      122.466 
         150     0.853332 -0.000639815 -3.85833e-05      122.466 
         150         1.08 -0.000491353 -4.63591e-05      122.466 
         150      1.33333 -0.000335129 -5.16942e-05      122.466 
         150      1.61333  -0.00018889 -5.64944e-05      122.466 
         150         1.92 -2.20659e-05 -5.90828e-05      122.466 
         150      2.25333  0.000123793 -5.90969e-05      122.466 
         150      2.61333  0.000232004 -5.72954e-05      122.466 
         150            3  0.000307424 -5.38847e-05      122.466 
         200            0            0            0      115.471 
         200     0.013333  0.000174696  2.47134e-08      115.471 
         200     0.053333  0.000254122  5.49901e-07      115.471 
         200         0.12  0.000310342  3.51025e-06      115.471 
         200     0.213332  0.000285356  1.18389e-05      115.471 
         200     0.333332  0.000219175  2.65388e-05      115.471 
         200         0.48  0.000190251  4.52811e-05      115.471 
         200     0.653331  0.000219307  6.41935e-05      115.471 
         200     0.853332   0.00024669  7.89074e-05      115.471 
         200         1.08  0.000208139  8.59584e-05      115.471 
         200      1.33333  0.000143405  8.64561e-05      115.471 
         200      1.61333  0.000110099  8.40715e-05      115.471 
         200         1.92  8.80504e-05  7.89083e-05      115.471 
         200      2.25333  7.36265e-05  7.08271e-05      115.471 
         200      2.61333  6.90442e-05  6.06848e-05      115.471 
         200            3  7.19117e-05   4.9061e-05       115.47 
         250            0            0            0      108.507 
         250     0.013333  0.000112998  2.70822e-07      108.507 
         250     0.053333 -1.17011e-05  3.86848e-06      108.507 
         250         0.12 -0.000283335  1.61828e-05      108.507 
         250     0.213332 -0.000640529  3.94083e-05      108.507 
         250     0.333332  -0.00094019  7.06681e-05      108.507 
         250         0.48  -0.00110982  0.000106143      108.507 
         250     0.653331  -0.00115178   0.00014552      108.507 
         250     0.853332  -0.00105502  0.000191912      108.507 
         250         1.08 -0.000824547  0.000246161      108.507 
         250      1.33333 -0.000571402  0.000301972      108.507 
         250      1.61333 -0.000367292  0.000350639      108.507 
         250         1.92 -0.000156436  0.000387891      108.507 
         250      2.25333  3.89233e-05  0.000411232      108.507 
         250      2.61333   0.00020484  0.000418834      108.507 
         250            3  0.000335791  0.000411109      108.507 
         300            0            0            0      101.555 
         300     0.013333  4.05936e-05 -2.58964e-07      101.555 
         300     0.053333 -0.000124151 -4.05636e-06      101.555 
         300         0.12 -9.71743e-05 -1.93114e-05      101.555 
         300     0.213332  0.000221189  -5.4185e-05      101.555 
         300     0.333332  0.000681534 -0.000110708      101.555 
         300         0.48   0.00104802 -0.000183751      101.555 
         300     0.653331   0.00120466 -0.000266465      101.555 
         300     0.853332   0.00117055 -0.000354064      101.555 
         300         1.08   0.00103583 -0.000441759      101.555 
         300      1.33333  0.000894979  -0.00052328      101.555 
         300      1.61333  0.000759365 -0.000593426      101.555 
         300         1.92  0.000591504 -0.000647315      101.555 
         300      2.25333  0.000417404 -0.000680239      101.555 
         300      2.61333  0.000250792 -0.000689497      101.555 
         300            3  0.000100595 -0.000674918      101.555 
         350            0  5.68034e-20  6.33076e-27       94.606 
         350     0.013333 -0.000152256  1.62534e-07       94.606 
         350     0.053333 -0.000929599  1.92151e-06       94.606 
         350         0.12  -0.00189475   5.3395e-06       94.606 
         350     0.213332  -0.00266383  4.20551e-06       94.606 
         350     0.333332  -0.00301391 -1.12535e-05       94.606 
         350         0.48  -0.00303073 -4.65123e-05       94.606 
         350     0.653331  -0.00293089 -9.92512e-05       94.606 
         350     0.853332  -0.00280667 -0.000160985       94.606 
         350         1.08  -0.00256765 -0.000220355       94.606 
         350      1.33333  -0.00214697   -0.0002697       94.606 
         350      1.61333  -0.00163637 -0.000309634      94.6061 
         350         1.92  -0.00109635 -0.000340825      94.6061 
         350      2.25333 -0.000554098 -0.000360599      94.6061 
         350      2.61333 -4.09091e-05 -0.000367812      94.6061 
         350            3  0.000401689 -0.000362127      94.6062 
         400            0            0            0      87.6611 
         400     0.013333  0.000280514 -3.18307e-07      87.6611 
         400     0.053333  0.000746955 -4.62446e-06      87.6611 
         400         0.12   0.00153979 -1.96956e-05      87.6611 
         400     0.213332   0.00243323 -4.81201e-05      87.6611 
         400     0.333332   0.00308944 -8.36521e-05      87.6611 
         400         0.48   0.00333334 -0.000115821      87.6611 
         400     0.653331   0.00324423 -0.000138566      87.6611 
         400     0.853332   0.00298424 -0.000152223      87.6611 
         400         1.08   0.00266441 -0.000158468      87.6611 
         400      1.33333   0.00232545 -0.000157814      87.6611 
         400      1.61333   0.00193573 -0.000151845      87.6611 
         400         1.92   0.00146987 -0.000142171      87.6611 
         400      2.25333  0.000972381 -0.000129078       87.661 
         400      2.61333  0.000482333 -0.000112711       87.661 
         400            3  3.68232e-05 -9.37961e-05       87.661 
         450            0  -5.3374e-20 -3.49786e-27      80.7127 
         450     0.013333 -0.000454446  2.09951e-08      80.7127 
         450     0.053333   -0.0019647 -6.14494e-07      80.7127 
         450         0.12  -0.00366784 -8.79939e-06      80.7127 
         450     0.213332  -0.00478567 -4.18411e-05      80.7127 
         450     0.333332  -0.00502434 -0.000118286      80.7127 
         450         0.48  -0.00471503 -0.000244009      80.7126 
         450     0.653331  -0.00436199 -0.000410239      80.7126 
         450     0.853332  -0.00417356 -0.000600141      80.7126 
         450         1.08  -0.00396121  -0.00079217      80.7126 
         450      1.33333     -0.00346 -0.000966634      80.7127 
         450      1.61333  -0.00273038  -0.00111665      80.7127 
         450         1.92  -0.00196179  -0.00124111      80.7127 
         450      2.25333  -0.00117928  -0.00133203      80.7127 
         450      2.61333 -0.000406858   -0.0013823      80.7128 
         450            3  0.000295964  -0.00138769      80.7129 
         500            0           -0           -0      73.7678 
         500     0.013333  0.000198795  3.46399e-07      73.7678 
         500     0.053333  0.000268842  5.13635e-06      73.7678 
         500         0.12  0.000159746  2.27113e-05      73.7678 
         500     0.213332 -0.000163219  5.90003e-05      73.7678 
         500     0.333332 -0.000521322  0.000112681      73.7678 
         500         0.48 -0.000740455  0.000178097      73.7678 
         500     0.653331 -0.000778121  0.000252039      73.7678 
         500     0.853332 -0.000646376  0.000335995      73.7678 
         500         1.08 -0.000364893  0.000431231      73.7678 
         500      1.33333 -6.28292e-05  0.000531091      73.7678 
         500      1.61333  9.61011e-05  0.000622625      73.7678 
         500         1.92  0.000168662     0.000698      73.7678 
         500      2.25333  0.000225588  0.000754166      73.7678 
         500      2.61333  0.000277065  0.000787502      73.7678 
         500            3  0.000311816  0.000795127      73.7678 
         550            0            0            0      66.8223 
         550     0.013333  0.000324785  6.61158e-08      66.8223 
         550     0.053333  0.000780683  1.30206e-06      66.8223 
         550         0.12   0.00124452  7.89768e-06      66.8223 
         550     0.213332   0.00144438  2.72643e-05      66.8223 
         550     0.333332   0.00133086  6.56744e-05      66.8223 
         550         0.48   0.00107814  0.000123489      66.8223 
         550     0.653331  0.000886716  0.000195748      66.8223 
         550     0.853332  0.000822926  0.000275831      66.8223 
         550         1.08  0.000811258  0.000356709      66.8223 
         550      1.33333  0.000736846   0.00043161      66.8223 
         550      1.61333  0.000587528  0.000497091      66.8223 
         550         1.92  0.000438775  0.000552693      66.8222 
         550      2.25333  0.000299196  0.000595764      66.8222 
         550      2.61333  0.000164499  0.000623012      66.8222 
         550            3  4.06727e-05  0.000631888      66.8222 
         600            0  2.20923e-19 -5.88415e-27      59.8761 
         600     0.013333  1.18158e-05 -3.86059e-07      59.8761 
         600     0.053333 -0.000192651 -5.93562e-06      59.8761 
         600         0.12 -0.000127329 -2.76519e-05      59.8761 
         600     0.213332  0.000338667  -7.6151e-05      59.8761 
         600     0.333332  0.000989564 -0.000153477      59.8761 
         600         0.48   0.00148712 -0.000252404      59.8761 
         600     0.653331   0.00166197 -0.000364214      59.8761 
         600     0.853332   0.00153682 -0.000484482      59.8761 
         600         1.08   0.00123185 -0.000609974      59.8761 
         600      1.33333   0.00093213 -0.000732883      59.8761 
         600      1.61333  0.000757472 -0.000843636      59.8761 
         600         1.92  0.000623841 -0.000937321      59.8761 
         600      2.25333  0.000476427  -0.00100993      59.8761 
         600      2.61333  0.000316875  -0.00105663      59.8761 
         600            3   0.00016313  -0.00107315      59.8761 
         650            0  2.73566e-19 -1.16079e-26      52.9283 
         650     0.013333   5.5962e-05  5.89479e-07      52.9283 
         650     0.053333 -0.000329919  8.67681e-06      52.9283 
         650         0.12  -0.00120544  3.79666e-05      52.9283 
         650     0.213332  -0.00244309  9.72417e-05      52.9283 
         650     0.333332  -0.00357751  0.000181814      52.9283 
         650         0.48  -0.00423034  0.000278329      52.9283 
         650     0.653331  -0.00437012  0.000377413      52.9283 
         650     0.853332  -0.00413956  0.000479739      52.9283 
         650         1.08  -0.00363305   0.00059054      52.9283 
         650      1.33333  -0.00297299  0.000708011      52.9283 
         650      1.61333  -0.00236289  0.000820357      52.9283 
         650         1.92  -0.00182995  0.000916904      52.9283 
         650      2.25333  -0.00128193  0.000993286      52.9283 
         650      2.61333  -0.00070531   0.00104516      52.9284 
         650            3 -0.000143975   0.00106821      52.9284 
         700            0           -0           -0       45.984 
         700     0.013333  8.89776e-05 -5.86205e-07       45.984 
         700     0.053333  0.000145395 -8.77292e-06       45.984 
         700         0.12    0.0006738 -3.94643e-05       45.984 
         700     0.213332   0.00171763 -0.000105011       45.984 
         700     0.333332   0.00290501 -0.000205682       45.984 
         700         0.48   0.00379267 -0.000331021       45.984 
         700     0.653331   0.00420737 -0.000470224       45.984 
         700     0.853332   0.00420196 -0.000619767       45.984 
         700         1.08   0.00385482 -0.000781651       45.984 
         700      1.33333   0.00327691  -0.00095378       45.984 
         700      1.61333    0.0026788  -0.00112434       45.984 
         700         1.92    0.0021636  -0.00127919       45.984 
         700      2.25333   0.00165002  -0.00140915       45.984 
         700      2.61333   0.00110614  -0.00150701      45.9839 
         700            3  0.000563246  -0.00156581      45.9839 
         750            0            0            0      39.0373 
         750     0.013333  0.000510556  1.54696e-07      39.0373 
         750     0.053333   0.00143724  2.68164e-06      39.0373 
         750         0.12   0.00244727  1.45708e-05      39.0373 
         750     0.213332   0.00305008   4.7066e-05      39.0373 
         750     0.333332   0.00307829  0.000110301      39.0373 
         750         0.48    0.0027324  0.000207379      39.0373 
         750     0.653331   0.00233999  0.000334241      39.0373 
         750     0.853332   0.00210943  0.000483992      39.0373 
         750         1.08   0.00205553  0.000649006      39.0373 
         750      1.33333   0.00203578  0.000819565      39.0373 
         750      1.61333    0.0018885  0.000984322      39.0373 
         750         1.92   0.00160729   0.00113453      39.0373 
         750      2.25333   0.00127109   0.00126404      39.0373 
         750      2.61333  0.000917359    0.0013659      39.0373 
         750            3  0.000554809   0.00143321      39.0373 
         800            0            0            0        32.09 
         800     0.013333  0.000124023  2.01848e-07        32.09 
         800     0.053333  2.45448e-05  2.99688e-06        32.09 
         800         0.12 -0.000254012  1.33937e-05        32.09 
         800     0.213332 -0.000730518  3.56626e-05        32.09 
         800     0.333332  -0.00128333  7.05378e-05        32.09 
         800         0.48  -0.00175616  0.000115323        32.09 
         800     0.653331  -0.00206788  0.000166352        32.09 
         800     0.853332  -0.00221896  0.000221566        32.09 
         800         1.08  -0.00221707  0.000281651        32.09 
         800      1.33333  -0.00204847  0.000348457        32.09 
         800      1.61333   -0.0017505   0.00042089        32.09 
         800         1.92  -0.00142612  0.000493315        32.09 
         800      2.25333  -0.00109656  0.000559543      32.0901 
         800      2.61333 -0.000756031  0.000615583      32.0901 
         800            3 -0.000406391   0.00065822      32.0901 
         850            0           -0           -0      25.1437 
         850     0.013333 -6.46344e-05  3.07738e-07      25.1437 
         850     0.053333  -0.00069333   4.4447e-06      25.1437 
         850         0.12  -0.00170308  1.88566e-05      25.1437 
         850     0.213332   -0.0028607  4.62001e-05      25.1437 
         850     0.333332  -0.00379263  8.11633e-05      25.1437 
         850         0.48  -0.00426449  0.000114062      25.1437 
         850     0.653331  -0.00431719  0.000138611      25.1437 
         850     0.853332  -0.00412183  0.000155605      25.1437 
         850         1.08  -0.00378782  0.000169973      25.1437 
         850      1.33333  -0.00335976  0.000184843      25.1437 
         850      1.61333  -0.00289179   0.00019903      25.1437 
         850         1.92  -0.00240737  0.000210404      25.1437 
         850      2.25333  -0.00188274   0.00021821      25.1437 
         850      2.61333  -0.00131712  0.000222172      25.1437 
         850            3 -0.000731956  0.000221723      25.1438 
         900            0           -0           -0      18.1991 
         900     0.013333 -0.000183901 -4.11837e-07      18.1991 
         900     0.053333 -0.000882294 -6.52103e-06      18.1991 
         900         0.12  -0.00135396 -3.17947e-05      18.1991 
         900     0.213332  -0.00116591 -9.26578e-05      18.1991 
         900     0.333332 -0.000387994  -0.00019854      18.1991 
         900         0.48  0.000519473 -0.000346087      18.1991 
         900     0.653331   0.00113334 -0.000524035      18.1991 
         900     0.853332   0.00130789  -0.00072221      18.1991 
         900         1.08   0.00112429 -0.000933914      18.1991 
         900      1.33333  0.000805947  -0.00115044      18.1991 
         900      1.61333  0.000600826  -0.00135899      18.1991 
         900         1.92  0.000525943  -0.00154949      18.1991 
         900      2.25333  0.000479547   -0.0017157      18.1991 
         900      2.61333  0.000413934  -0.00185023      18.1991 
         900            3  0.000331684  -0.00194477      18.1991 
         950            0           -0           -0      11.2552 
         950     0.013333  0.000633979 -3.96624e-07      11.2552 
         950     0.053333   0.00206188  -5.4547e-06      11.2552 
         950         0.12   0.00412876 -2.12824e-05      11.2552 
         950     0.213332   0.00619689 -4.57776e-05      11.2552 
         950     0.333332    0.0076072  -6.5572e-05      11.2552 
         950         0.48   0.00812289 -6.49894e-05      11.2552 
         950     0.653331   0.00800005 -3.74168e-05      11.2552 
         950     0.853332   0.00762505  1.19048e-05      11.2552 
         950         1.08   0.00716578  7.07007e-05      11.2552 
         950      1.33333   0.00655282  0.000126444      11.2552 
         950      1.61333   0.00572635  0.000172718      11.2552 
         950         1.92   0.00479889   0.00021191      11.2551 
         950      2.25333   0.00384132  0.000247531      11.2551 
         950      2.61333   0.00285318  0.000279106      11.2551 
         950            3   0.00182463  0.000304493       11.255 
        1000            0           -0           -0       4.3065 
        1000     0.013333  0.000714443  4.83665e-07       4.3065 
        1000     0.053333   0.00204632  7.83122e-06       4.3065 
        1000         0.12   0.00320954  3.93738e-05       4.3065 
        1000     0.213332   0.00339678  0.000118667      4.30651 
        1000     0.333332   0.00254497  0.000262709      4.30651 
        1000         0.48   0.00127588  0.000471406      4.30651 
        1000     0.653331  0.000286033  0.000730713      4.30651 
        1000     0.853332 -0.000115377   0.00102443      4.30651 
        1000         1.08 -8.23006e-06   0.00133986      4.30651 
        1000      1.33333  0.000298901   0.00166347      4.30651 
        1000      1.61333  0.000473448   0.00197861      4.30651 
        1000         1.92  0.000435202   0.00227176      4.30651 
        1000      2.25333  0.000334697   0.00253329       4.3065 
        1000      2.61333  0.000248973   0.00275275       4.3065 
        1000            3  0.000172702   0.00291783      4.30649 
