Variables = x, y, u, v, p

Zone, I=3600, F=POINT
         -50            0            0            0    -0.111895 
         -50     0.000942  1.34253e-07 -5.19514e-12    -0.111895 
         -50     0.003768  4.28051e-07 -9.99329e-12    -0.111895 
         -50     0.008478  6.59607e-07   1.1288e-11    -0.111895 
         -50     0.015075  7.08513e-07  8.53551e-11    -0.111895 
         -50     0.023553  6.59798e-07  2.32131e-10    -0.111895 
         -50     0.033916  6.66526e-07  4.72418e-10    -0.111895 
         -50     0.046163  7.19826e-07  8.42978e-10    -0.111895 
         -50       0.0603  7.05658e-07  1.39877e-09    -0.111895 
         -50     0.076315  7.46122e-07  2.19934e-09    -0.111895 
         -50     0.094215  7.38087e-07  3.32602e-09    -0.111895 
         -50     0.113999  7.45037e-07  4.85442e-09    -0.111895 
         -50     0.135675  7.43942e-07  6.85684e-09    -0.111895 
         -50     0.159228  7.41892e-07  9.41361e-09    -0.111895 
         -50     0.184664  7.35316e-07  1.25707e-08    -0.111895 
         -50     0.211985  7.23796e-07  1.62642e-08    -0.111895 
         -50     0.241201  7.13126e-07  2.03362e-08    -0.111895 
         -50      0.27229  6.99048e-07  2.45666e-08    -0.111894 
         -50     0.305263  6.86285e-07  2.84076e-08    -0.111894 
         -50     0.340135  6.74358e-07  3.20679e-08    -0.111894 
         -50     0.376877  6.64213e-07   3.6068e-08    -0.111894 
         -50     0.415503  6.56345e-07   4.0945e-08    -0.111894 
         -50     0.456013  6.50972e-07  4.69122e-08    -0.111894 
         -50     0.498424  6.48203e-07  5.35825e-08    -0.111894 
         -50     0.542703  6.48102e-07  5.99483e-08    -0.111894 
         -50     0.588866  6.50345e-07  6.50088e-08    -0.111894 
         -50     0.636912  6.53892e-07  6.90701e-08    -0.111894 
         -50     0.686864  6.57546e-07  7.43005e-08    -0.111894 
         -50     0.738679  6.60412e-07  8.06012e-08    -0.111894 
         -50     0.792379  6.62089e-07  8.73936e-08    -0.111894 
         -50     0.847962  6.62411e-07  9.42135e-08    -0.111893 
         -50     0.905453  6.61464e-07  1.00721e-07    -0.111893 
         -50     0.964806   6.5958e-07  1.06684e-07    -0.111893 
         -50      1.02604  6.57304e-07   1.1198e-07    -0.111893 
         -50      1.08919  6.55328e-07  1.16571e-07    -0.111893 
         -50      1.15419    6.544e-07  1.20482e-07    -0.111892 
         -50      1.22108  6.55189e-07  1.23817e-07    -0.111892 
         -50      1.28985  6.58116e-07  1.26783e-07    -0.111892 
         -50      1.36054  6.63155e-07  1.29778e-07    -0.111891 
         -50      1.43308  6.69588e-07  1.33552e-07    -0.111891 
         -50      1.50751  6.75916e-07  1.39401e-07    -0.111891 
         -50      1.58382  6.90254e-07  1.40966e-07     -0.11189 
         -50      1.66204  7.00835e-07   1.4265e-07     -0.11189 
         -50      1.74212  7.08068e-07  1.44094e-07    -0.111889 
         -50      1.82409  7.12214e-07  1.44927e-07    -0.111889 
         -50      1.90793  7.13385e-07  1.44775e-07    -0.111888 
         -50       1.9937  7.11594e-07  1.43276e-07    -0.111888 
         -50      2.08131  7.06796e-07  1.40106e-07    -0.111887 
         -50      2.17081  6.98945e-07  1.34994e-07    -0.111886 
         -50      2.26223  6.88053e-07  1.27742e-07    -0.111886 
         -50       2.3555   6.7427e-07   1.1826e-07    -0.111885 
         -50      2.45065  6.57926e-07  1.06572e-07    -0.111884 
         -50      2.54769  6.39598e-07  9.28448e-08    -0.111883 
         -50      2.64665  6.20142e-07  7.73942e-08    -0.111883 
         -50      2.74746  6.00735e-07  6.07242e-08    -0.111882 
         -50      2.85014  5.82805e-07  4.34912e-08    -0.111881 
         -50      2.95472  5.67988e-07  2.65219e-08     -0.11188 
         -50      3.06122  5.57977e-07  1.07815e-08    -0.111879 
         -50      3.16956  5.54303e-07 -2.63856e-09    -0.111877 
         -50      3.27979  5.57978e-07 -1.26169e-08    -0.111876 
         -50       3.3919  5.69034e-07 -1.80598e-08    -0.111875 
         -50      3.50594  5.85889e-07 -1.80219e-08    -0.111874 
         -50      3.62181  6.04485e-07 -1.18605e-08    -0.111872 
         -50      3.73958  6.17246e-07  5.67605e-10    -0.111871 
         -50      3.85927   6.2358e-07 -1.63475e-09    -0.111869 
         -50       3.9808  6.28932e-07 -3.23294e-10    -0.111867 
         -50      4.10422  6.28101e-07  1.13063e-08    -0.111866 
         -50      4.22952  6.28538e-07   2.1526e-08    -0.111864 
         -50      4.35675  6.29236e-07  2.86582e-08    -0.111862 
         -50      4.48582   6.2997e-07  3.34141e-08     -0.11186 
         -50      4.61677  6.30893e-07  3.73542e-08    -0.111858 
         -50      4.74961  6.32184e-07  4.16465e-08    -0.111856 
         -50      4.88438  6.33817e-07  4.63512e-08    -0.111854 
         -50      5.02099  6.35477e-07  5.04154e-08    -0.111852 
         -50      5.15948  6.36699e-07  5.26545e-08    -0.111849 
         -50      5.29985  6.37281e-07  5.39645e-08    -0.111847 
         -50      5.44217  6.38063e-07  6.11201e-08    -0.111844 
         -50      5.58631  6.36148e-07  5.48836e-08    -0.111841 
         -50      5.73233   6.3552e-07  6.19417e-08    -0.111839 
         -50      5.88024   6.3262e-07  6.87688e-08    -0.111836 
         -50       6.0301  6.26916e-07  7.30309e-08    -0.111833 
         -50      6.18178  6.19951e-07  7.73371e-08     -0.11183 
         -50      6.33534  6.14092e-07  8.34971e-08    -0.111826 
         -50      6.49085   6.1139e-07  8.99991e-08    -0.111823 
         -50      6.64818  6.12609e-07  9.37678e-08     -0.11182 
         -50      6.80739  6.12123e-07  9.11162e-08    -0.111816 
         -50      6.96849  6.08122e-07  8.49723e-08    -0.111812 
         -50      7.13154  6.13133e-07  9.14475e-08    -0.111808 
         -50      7.29641  6.12249e-07  8.59605e-08    -0.111804 
         -50      7.46316  6.08048e-07  9.25815e-08      -0.1118 
         -50       7.6318  6.04469e-07  9.83064e-08    -0.111796 
         -50      7.80239  6.01934e-07  9.85359e-08    -0.111792 
         -50      7.97479  5.99173e-07   9.5393e-08    -0.111787 
         -50      8.14908  5.94836e-07  9.34328e-08    -0.111782 
         -50      8.32526   5.8863e-07  9.62141e-08    -0.111778 
         -50      8.50338  5.81852e-07  1.04064e-07    -0.111773 
         -50      8.68333  5.77139e-07  1.13362e-07    -0.111768 
         -50      8.86515  5.78883e-07  1.14621e-07    -0.111762 
         -50      9.04894  5.78119e-07  1.02359e-07    -0.111757 
         -50      9.23453  5.66561e-07  1.18531e-07    -0.111751 
         -50      9.42201  5.70779e-07  1.02883e-07    -0.111746 
         -50      9.61137  5.67903e-07  1.01974e-07     -0.11174 
         -50      9.80269  5.61077e-07  1.05982e-07    -0.111733 
         -50      9.99583  5.55104e-07  1.08944e-07    -0.111727 
         -50      10.1908  5.51936e-07  1.08886e-07    -0.111721 
         -50      10.3877  5.51541e-07  1.06434e-07    -0.111714 
         -50      10.5866  5.52724e-07  1.03521e-07    -0.111707 
         -50      10.7873  5.53913e-07  1.02262e-07      -0.1117 
         -50      10.9898  5.53863e-07  1.04019e-07    -0.111693 
         -50      11.1943  5.52253e-07  1.08763e-07    -0.111686 
         -50      11.4007  5.50137e-07  1.14774e-07    -0.111678 
         -50      11.6089  5.50221e-07  1.18761e-07    -0.111671 
         -50       11.819  5.56904e-07  1.16528e-07    -0.111663 
         -50       12.031  5.61061e-07  1.24419e-07    -0.111655 
         -50      12.2449  5.56501e-07  1.36671e-07    -0.111646 
         -50      12.4606  5.51732e-07  1.37331e-07    -0.111638 
         -50      12.6782  5.46645e-07  1.32847e-07    -0.111629 
         -50      12.8978  5.40745e-07  1.37449e-07     -0.11162 
         -50      13.1192  5.38649e-07  1.44155e-07    -0.111611 
         -50      13.3425   5.4151e-07  1.46225e-07    -0.111601 
         -50      13.5677  5.43532e-07   1.5203e-07    -0.111592 
         -50      13.7948  5.42783e-07  1.59234e-07    -0.111582 
         -50      14.0237  5.39276e-07    1.659e-07    -0.111572 
         -50      14.2546  5.34346e-07  1.70759e-07    -0.111562 
         -50      14.4873   5.2999e-07  1.73318e-07    -0.111551 
         -50      14.7219  5.28172e-07  1.73865e-07    -0.111541 
         -50      14.9584  5.30088e-07  1.73309e-07     -0.11153 
         -50      15.1968  5.35404e-07  1.72831e-07    -0.111518 
         -50      15.4371   5.4147e-07  1.73334e-07    -0.111507 
         -50      15.6792  5.42503e-07  1.74642e-07    -0.111495 
         -50      15.9232  5.28784e-07   1.7443e-07    -0.111484 
         -50      16.1691  5.20186e-07   1.7104e-07    -0.111471 
         -50       16.417  5.17507e-07  1.67651e-07    -0.111459 
         -50      16.6666  5.15606e-07  1.67037e-07    -0.111447 
         -50      16.9182   5.1608e-07   1.7012e-07    -0.111434 
         -50      17.1716   5.2167e-07  1.76996e-07    -0.111421 
         -50       17.427  5.35379e-07  1.88105e-07    -0.111407 
         -50      17.6842  5.21157e-07  1.88546e-07    -0.111394 
         -50      17.9433  5.05291e-07  1.91875e-07     -0.11138 
         -50      18.2042  5.01813e-07  2.00707e-07    -0.111366 
         -50      18.4672  5.05667e-07  2.09448e-07    -0.111351 
         -50      18.7319  5.11609e-07  2.14394e-07    -0.111337 
         -50      18.9985  5.14808e-07   2.1492e-07    -0.111322 
         -50       19.267  5.12036e-07  2.14396e-07    -0.111307 
         -50      19.5375  5.03529e-07   2.2085e-07    -0.111292 
         -50      19.8098  4.95881e-07  2.42771e-07    -0.111276 
         -50       20.084  4.96537e-07  2.31805e-07     -0.11126 
         -50      20.3601  4.98308e-07  2.25231e-07    -0.111244 
         -50       20.638  4.99348e-07   2.2219e-07    -0.111228 
         -50      20.9178  4.98826e-07  2.21864e-07    -0.111211 
         -50      21.1995  4.96661e-07  2.23496e-07    -0.111194 
         -50      21.4832  4.93274e-07  2.26401e-07    -0.111177 
         -50      21.7687  4.89363e-07  2.29966e-07    -0.111159 
         -50       22.056  4.85689e-07  2.33667e-07    -0.111142 
         -50      22.3452  4.82905e-07  2.37072e-07    -0.111124 
         -50      22.6365   4.8142e-07  2.39842e-07    -0.111105 
         -50      22.9295  4.81306e-07  2.41733e-07    -0.111087 
         -50      23.2243   4.8225e-07  2.42598e-07    -0.111068 
         -50      23.5211  4.83572e-07  2.42381e-07    -0.111049 
         -50      23.8199  4.84308e-07  2.41109e-07     -0.11103 
         -50      24.1204  4.83365e-07  2.38882e-07     -0.11101 
         -50      24.4228  4.79763e-07  2.35855e-07     -0.11099 
         -50      24.7272  4.72969e-07  2.32223e-07     -0.11097 
         -50      25.0334  4.63348e-07  2.28196e-07     -0.11095 
         -50      25.3415  4.52707e-07  2.23965e-07    -0.110929 
         -50      25.6514  4.51156e-07  2.23216e-07    -0.110908 
         -50      25.9634  4.71136e-07  2.37872e-07    -0.110887 
         -50      26.2771  4.76973e-07  2.45516e-07    -0.110866 
         -50      26.5927  4.92685e-07    2.435e-07    -0.110844 
         -50      26.9102  4.96269e-07  2.41777e-07    -0.110822 
         -50      27.2297  4.85893e-07  2.42596e-07      -0.1108 
         -50       27.551  4.71756e-07  2.44662e-07    -0.110777 
         -50      27.8741  4.58295e-07  2.47091e-07    -0.110755 
         -50      28.1991  4.47147e-07   2.4958e-07    -0.110732 
         -50      28.5262  4.39042e-07  2.51909e-07    -0.110708 
         -50       28.855  4.34028e-07  2.53924e-07    -0.110685 
         -50      29.1856   4.3166e-07  2.55522e-07    -0.110661 
         -50      29.5183  4.31201e-07  2.56635e-07    -0.110637 
         -50      29.8528   4.3179e-07   2.5722e-07    -0.110613 
         -50      30.1891  4.32589e-07  2.57257e-07    -0.110588 
         -50      30.5273  4.32902e-07   2.5674e-07    -0.110564 
         -50      30.8676  4.32263e-07  2.55685e-07    -0.110539 
         -50      31.2096  4.30491e-07  2.54135e-07    -0.110513 
         -50      31.5534  4.27698e-07  2.52176e-07    -0.110488 
         -50      31.8992  4.24258e-07  2.49958e-07    -0.110462 
         -50      32.2469  4.20721e-07   2.4772e-07    -0.110436 
         -50      32.5965  4.17673e-07  2.45833e-07     -0.11041 
         -50      32.9479   4.1553e-07  2.44839e-07    -0.110384 
         -50      33.3012  4.14263e-07  2.45507e-07    -0.110357 
         -50      33.6565  4.13057e-07  2.48905e-07     -0.11033 
         -50      34.0135  4.09873e-07  2.56467e-07    -0.110303 
         -50      34.3725  4.10098e-07  2.52907e-07    -0.110276 
         -50      34.7334  4.11995e-07   2.4715e-07    -0.110248 
         -50      35.0962  4.13275e-07  2.44245e-07    -0.110221 
         -50      35.4608  4.07514e-07  2.44984e-07    -0.110193 
         -50      35.8272  3.99092e-07  2.46899e-07    -0.110165 
         -50      36.1957  3.92929e-07  2.48894e-07    -0.110136 
         -50       36.566  3.89171e-07  2.51324e-07    -0.110108 
         -50      36.9381  3.87334e-07  2.54167e-07    -0.110079 
         -50      37.3121  3.86603e-07  2.57159e-07     -0.11005 
         -50      37.6882  3.86078e-07  2.59916e-07    -0.110021 
         -50       38.066  3.84982e-07  2.62038e-07    -0.109991 
         -50      38.4456  3.82812e-07  2.63198e-07    -0.109962 
         -50      38.8272  3.79435e-07  2.63205e-07    -0.109932 
         -50      39.2108  3.75117e-07  2.62052e-07    -0.109902 
         -50      39.5961  3.70491e-07  2.59927e-07    -0.109872 
         -50      39.9833  3.66428e-07    2.572e-07    -0.109842 
         -50      40.3724  3.63838e-07  2.54384e-07    -0.109811 
         -50      40.7635  3.63362e-07  2.52044e-07    -0.109781 
         -50      41.1564  3.64973e-07  2.50689e-07     -0.10975 
         -50      41.5511  3.67452e-07    2.506e-07    -0.109719 
         -50      41.9479   3.6775e-07  2.51627e-07    -0.109688 
         -50      42.3464  3.60755e-07  2.53148e-07    -0.109657 
         -50      42.7468  3.55204e-07  2.55335e-07    -0.109625 
         -50      43.1491   3.5191e-07  2.55725e-07    -0.109594 
         -50      43.5534   3.5021e-07  2.55156e-07    -0.109562 
         -50      43.9595  3.49281e-07  2.53942e-07     -0.10953 
         -50      44.3674   3.4819e-07  2.51937e-07    -0.109498 
         -50      44.7772  3.45958e-07  2.48626e-07    -0.109466 
         -50      45.1891  3.41638e-07  2.43224e-07    -0.109434 
         -50      45.6027  3.34407e-07  2.34802e-07    -0.109401 
         -50      46.0181  3.31675e-07  2.29941e-07    -0.109369 
         -50      46.4355  3.36103e-07  2.34148e-07    -0.109336 
         -50      46.8549  3.36423e-07  2.36575e-07    -0.109304 
         -50       47.276  3.34187e-07  2.37049e-07    -0.109271 
         -50       47.699   3.3077e-07  2.35827e-07    -0.109238 
         -50      48.1241  3.27254e-07  2.33482e-07    -0.109205 
         -50      48.5508  3.24355e-07  2.30787e-07    -0.109172 
         -50      48.9795  3.22368e-07  2.28557e-07    -0.109138 
         -50        49.41  3.21166e-07  2.27482e-07    -0.109105 
         -50      49.8426  3.20244e-07  2.27937e-07    -0.109072 
         -50      50.2769  3.18801e-07  2.29752e-07    -0.109038 
         -50      50.7131  3.15884e-07   2.3197e-07    -0.109004 
         -50      51.1512  3.10582e-07  2.32567e-07    -0.108971 
         -50      51.5914  3.02283e-07  2.28135e-07    -0.108937 
         -50      52.0332  3.04285e-07  2.32859e-07    -0.108903 
         -50      52.4769  3.05927e-07  2.36974e-07    -0.108869 
         -50      52.9225  3.04713e-07  2.37357e-07    -0.108835 
         -50      53.3702  3.01978e-07  2.35568e-07    -0.108801 
         -50      53.8196  2.98616e-07  2.32755e-07    -0.108767 
         -50      54.2709  2.95167e-07  2.29714e-07    -0.108733 
         -50      54.7242  2.91903e-07  2.26953e-07    -0.108699 
         -50      55.1792  2.88911e-07  2.24749e-07    -0.108665 
         -50      55.6362   2.8616e-07  2.23199e-07    -0.108631 
         -50       56.095  2.83562e-07  2.22264e-07    -0.108596 
         -50      56.5558  2.81034e-07  2.21814e-07    -0.108562 
         -50      57.0184  2.78537e-07  2.21658e-07    -0.108528 
         -50      57.4829  2.76109e-07   2.2157e-07    -0.108494 
         -50      57.9492  2.73885e-07  2.21306e-07    -0.108459 
         -50      58.4176  2.72105e-07  2.20613e-07    -0.108425 
         -50      58.8877  2.71107e-07  2.19224e-07     -0.10839 
         -50      59.3597  2.71298e-07  2.16846e-07    -0.108356 
         -50      59.8336  2.69393e-07  2.14688e-07    -0.108322 
         -50      60.3096  2.69172e-07   2.1307e-07    -0.108287 
         -50      60.7872  2.69514e-07  2.12174e-07    -0.108253 
         -50      61.2667  2.68713e-07  2.12322e-07    -0.108219 
         -50      61.7484  2.65983e-07  2.13514e-07    -0.108184 
         -50      62.2317  2.61484e-07  2.15232e-07     -0.10815 
         -50      62.7168  2.56313e-07  2.16246e-07    -0.108116 
         -50      63.2039    2.525e-07  2.14386e-07    -0.108081 
         -50      63.6931  2.52965e-07   2.1167e-07    -0.108047 
         -50      64.1839  2.53283e-07  2.11608e-07    -0.108013 
         -50      64.6766  2.52048e-07  2.11157e-07    -0.107979 
         -50      65.1712  2.49803e-07  2.10323e-07    -0.107945 
         -50      65.6679   2.4703e-07  2.09168e-07     -0.10791 
         -50      66.1663  2.44138e-07  2.07784e-07    -0.107876 
         -50      66.6665  2.41446e-07  2.06264e-07    -0.107842 
         -50      67.1687  2.39178e-07  2.04685e-07    -0.107808 
         -50      67.6729  2.37456e-07  2.03094e-07    -0.107774 
         -50      68.1788  2.36309e-07  2.01504e-07    -0.107741 
         -50      68.6866  2.35673e-07  1.99885e-07    -0.107707 
         -50      69.1963  2.35403e-07  1.98175e-07    -0.107673 
         -50      69.7081  2.35296e-07   1.9629e-07     -0.10764 
         -50      70.2215  2.35115e-07  1.94151e-07    -0.107606 
         -50      70.7368  2.34616e-07  1.91706e-07    -0.107572 
         -50      71.2543  2.33593e-07   1.8897e-07    -0.107539 
         -50      71.7734  2.31924e-07  1.86083e-07    -0.107506 
         -50      72.2943  2.29621e-07  1.83357e-07    -0.107473 
         -50      72.8172  2.26902e-07  1.81353e-07    -0.107439 
         -50      73.3422  2.24252e-07  1.81124e-07    -0.107406 
         -50      73.8688  2.23616e-07  1.84201e-07    -0.107373 
         -50      74.3973  2.24922e-07  1.84953e-07    -0.107341 
         -50      74.9277  2.24595e-07  1.83904e-07    -0.107308 
         -50      75.4602  2.17483e-07  1.80586e-07    -0.107275 
         -50      75.9944  2.16219e-07  1.76723e-07    -0.107243 
         -50      76.5305  2.19402e-07   1.7343e-07     -0.10721 
         -50      77.0684  2.19362e-07  1.70727e-07    -0.107178 
         -50      77.6084  2.16655e-07  1.69183e-07    -0.107146 
         -50      78.1502  2.12161e-07   1.6885e-07    -0.107114 
         -50      78.6937  2.07033e-07  1.69387e-07    -0.107082 
         -50      79.2394  2.02651e-07   1.7018e-07     -0.10705 
         -50      79.7868  2.01038e-07  1.69032e-07    -0.107018 
         -50      80.3361  2.01448e-07  1.63664e-07    -0.106987 
         -50      80.8872  2.00595e-07  1.60258e-07    -0.106955 
         -50      81.4404  1.98966e-07  1.58296e-07    -0.106924 
         -50      81.9953  1.97002e-07  1.57315e-07    -0.106893 
         -50      82.5521  1.95075e-07  1.56911e-07    -0.106862 
         -50      83.1108  1.93471e-07  1.56743e-07    -0.106831 
         -50      83.6715  1.92382e-07  1.56536e-07    -0.106801 
         -50       84.234  1.91899e-07  1.56086e-07     -0.10677 
         -50      84.7983  1.92008e-07  1.55256e-07     -0.10674 
         -50      85.3645  1.92603e-07  1.53978e-07     -0.10671 
         -50      85.9328  1.93494e-07   1.5225e-07     -0.10668 
         -50      86.5028  1.94426e-07  1.50134e-07     -0.10665 
         -50      87.0747   1.9511e-07  1.47748e-07     -0.10662 
         -50      87.6486  1.95252e-07  1.45259e-07    -0.106591 
         -50      88.2243  1.94603e-07  1.42876e-07    -0.106561 
         -50      88.8018  1.93006e-07  1.40834e-07    -0.106532 
         -50      89.3812  1.90461e-07  1.39387e-07    -0.106503 
         -50      89.9627  1.87191e-07  1.38786e-07    -0.106474 
         -50      90.5458  1.83737e-07  1.39264e-07    -0.106446 
         -50      91.1309  1.80181e-07  1.41012e-07    -0.106417 
         -50      91.7178  1.76351e-07  1.40877e-07    -0.106389 
         -50      92.3069  1.75502e-07   1.3814e-07    -0.106361 
         -50      92.8976  1.75981e-07   1.3442e-07    -0.106334 
         -50      93.4901   1.7664e-07   1.3087e-07    -0.106306 
         -50      94.0846    1.768e-07  1.28198e-07    -0.106279 
         -50      94.6812  1.76219e-07  1.26685e-07    -0.106251 
         -50      95.2794  1.75056e-07  1.26196e-07    -0.106224 
         -50      95.8796  1.73828e-07    1.262e-07    -0.106198 
         -50      96.4818  1.73372e-07  1.25786e-07    -0.106171 
         -50      97.0857  1.74792e-07  1.23681e-07    -0.106145 
         -50      97.6915  1.79417e-07  1.18269e-07    -0.106119 
         -50      98.2991  1.82587e-07  1.11978e-07    -0.106093 
         -50      98.9089  1.73751e-07  1.13484e-07    -0.106067 
         -50      99.5203  1.67075e-07  1.13907e-07    -0.106042 
         -50      100.134  1.62311e-07  1.13572e-07    -0.106017 
         -50      100.749  1.59176e-07  1.12737e-07    -0.105992 
         -50      101.366   1.5736e-07  1.11593e-07    -0.105967 
         -50      101.985  1.56539e-07  1.10272e-07    -0.105942 
         -50      102.606  1.56383e-07  1.08847e-07    -0.105918 
         -50      103.229  1.56576e-07  1.07347e-07    -0.105894 
         -50      103.854  1.56825e-07  1.05763e-07    -0.105871 
         -50       104.48  1.56876e-07  1.04063e-07    -0.105847 
         -50      105.108  1.56531e-07  1.02202e-07    -0.105824 
         -50      105.739   1.5566e-07   1.0014e-07    -0.105801 
         -50      106.371  1.54219e-07  9.78575e-08    -0.105778 
         -50      107.005  1.52266e-07  9.53832e-08    -0.105756 
         -50      107.641  1.49979e-07  9.28066e-08    -0.105733 
         -50      108.279   1.4767e-07  9.03088e-08    -0.105711 
         -50      108.919  1.45808e-07  8.81924e-08     -0.10569 
         -50       109.56  1.45034e-07  8.69062e-08    -0.105668 
         -50      110.204  1.46182e-07  8.70828e-08    -0.105647 
         -50      110.849  1.50299e-07  8.95754e-08    -0.105626 
         -50      111.497   1.5866e-07  9.54929e-08    -0.105606 
         -50      112.146  1.59675e-07  9.21731e-08    -0.105586 
         -50      112.797  1.52645e-07   8.1405e-08    -0.105566 
         -50       113.45  1.49876e-07   7.6574e-08    -0.105546 
         -50      114.105  1.49876e-07   7.5381e-08    -0.105526 
         -50      114.761  1.51457e-07  7.60362e-08    -0.105507 
         -50       115.42  1.53713e-07   7.7224e-08    -0.105488 
         -50      116.081  1.55997e-07  7.80526e-08    -0.105469 
         -50      116.743  1.57883e-07   7.8003e-08    -0.105451 
         -50      117.407  1.59145e-07  7.68767e-08    -0.105433 
         -50      118.073  1.59718e-07   7.4736e-08    -0.105416 
         -50      118.741  1.59659e-07  7.18468e-08    -0.105399 
         -50      119.411  1.59116e-07  6.86095e-08    -0.105382 
         -50      120.083  1.58276e-07  6.54929e-08    -0.105365 
         -50      120.757  1.57327e-07  6.29607e-08    -0.105349 
         -50      121.432  1.56406e-07  6.13991e-08    -0.105333 
         -50       122.11  1.55547e-07  6.10298e-08    -0.105317 
         -50      122.789  1.54629e-07  6.18298e-08    -0.105301 
         -50       123.47  1.45915e-07  5.98486e-08    -0.105286 
         -50      124.153  1.39305e-07  5.80445e-08    -0.105272 
         -50      124.838  1.34717e-07  5.63115e-08    -0.105257 
         -50      125.525  1.31915e-07  5.45762e-08    -0.105243 
         -50      126.214  1.30567e-07  5.28043e-08     -0.10523 
         -50      126.905  1.30283e-07  5.09963e-08    -0.105217 
         -50      127.597  1.30646e-07  4.91754e-08    -0.105204 
         -50      128.292  1.31247e-07  4.73808e-08    -0.105191 
         -50      128.988  1.31718e-07  4.56591e-08    -0.105179 
         -50      129.686  1.31775e-07  4.40473e-08    -0.105167 
         -50      130.386  1.31248e-07  4.25624e-08    -0.105155 
         -50      131.088  1.30121e-07  4.11846e-08    -0.105143 
         -50      131.792  1.28571e-07   3.9842e-08    -0.105132 
         -50      132.497  1.27003e-07  3.83886e-08    -0.105121 
         -50      133.205  1.26095e-07  3.65854e-08     -0.10511 
         -50      133.915  1.26832e-07  3.40758e-08      -0.1051 
         -50      134.626  1.29992e-07  3.10059e-08     -0.10509 
         -50      135.339  1.33868e-07  2.93477e-08    -0.105081 
         -50      136.054  1.38167e-07  2.80816e-08    -0.105072 
         -50      136.771  1.42045e-07  2.70374e-08    -0.105063 
         -50       137.49  1.44837e-07  2.60719e-08    -0.105055 
         -50      138.211  1.46126e-07  2.50693e-08    -0.105046 
         -50      138.934  1.45769e-07  2.39448e-08    -0.105039 
         -50      139.658  1.43912e-07  2.26465e-08    -0.105031 
         -50      140.385  1.40972e-07  2.11526e-08    -0.105024 
         -50      141.113  1.37588e-07  1.94715e-08    -0.105018 
         -50      141.843  1.34549e-07  1.76365e-08    -0.105012 
         -50      142.575  1.32687e-07  1.57047e-08    -0.105006 
         -50      143.309  1.32734e-07  1.37458e-08    -0.105001 
         -50      144.045  1.35146e-07  1.18366e-08    -0.104997 
         -50      144.783  1.39899e-07  1.00499e-08    -0.104993 
         -50      145.523  1.46228e-07  8.44506e-09    -0.104989 
         -50      146.264  1.52347e-07  7.05029e-09    -0.104986 
         -50      147.007  1.55114e-07  5.84924e-09    -0.104983 
         -50      147.753  1.49651e-07  4.76201e-09     -0.10498 
         -50        148.5  1.28936e-07  3.62642e-09    -0.104978 
         -50      149.249  8.33269e-08  2.17288e-09    -0.104977 
         -50          150  7.41169e-22  1.86719e-23    -0.104976 
         -25            0           -0           -0    -0.107553 
         -25     0.000942  9.53189e-08  -3.3565e-14    -0.107553 
         -25     0.003768  3.01829e-07  7.42771e-12    -0.107553 
         -25     0.008478  4.57879e-07  4.19024e-11    -0.107553 
         -25     0.015075  4.75921e-07  1.27969e-10    -0.107553 
         -25     0.023553  4.18525e-07  2.89978e-10    -0.107553 
         -25     0.033916  3.98124e-07  5.52635e-10    -0.107553 
         -25     0.046163  4.09261e-07  9.43483e-10    -0.107553 
         -25       0.0603  3.69854e-07  1.48999e-09    -0.107553 
         -25     0.076315  3.70172e-07   2.2111e-09    -0.107553 
         -25     0.094215  3.36295e-07  3.12533e-09    -0.107553 
         -25     0.113999  3.15661e-07  4.22772e-09    -0.107553 
         -25     0.135675  2.92475e-07  5.51728e-09    -0.107553 
         -25     0.159228  2.72648e-07  6.97416e-09    -0.107553 
         -25     0.184664  2.53982e-07  8.57236e-09    -0.107553 
         -25     0.211985  2.36254e-07  1.02887e-08    -0.107553 
         -25     0.241201  2.23475e-07  1.21005e-08    -0.107553 
         -25      0.27229  2.12072e-07  1.39869e-08    -0.107553 
         -25     0.305263  2.04852e-07  1.59847e-08    -0.107553 
         -25     0.340135  2.00864e-07  1.81207e-08    -0.107553 
         -25     0.376877  2.00233e-07  2.03581e-08    -0.107553 
         -25     0.415503  2.02822e-07  2.25998e-08    -0.107553 
         -25     0.456013  2.08365e-07  2.47117e-08    -0.107553 
         -25     0.498424  2.16597e-07  2.65766e-08    -0.107553 
         -25     0.542703  2.27305e-07  2.81753e-08    -0.107552 
         -25     0.588866   2.4022e-07  2.97086e-08    -0.107552 
         -25     0.636912    2.548e-07  3.18452e-08    -0.107552 
         -25     0.686864  2.70879e-07  3.41777e-08    -0.107552 
         -25     0.738679  2.88055e-07  3.64579e-08    -0.107552 
         -25     0.792379  3.05888e-07  3.87141e-08    -0.107552 
         -25     0.847962  3.23882e-07  4.09525e-08    -0.107552 
         -25     0.905453   3.4154e-07  4.31649e-08    -0.107552 
         -25     0.964806  3.58384e-07  4.53315e-08    -0.107552 
         -25      1.02604  3.74043e-07  4.74349e-08    -0.107552 
         -25      1.08919  3.88288e-07  4.94654e-08    -0.107552 
         -25      1.15419  4.01042e-07  5.14237e-08    -0.107552 
         -25      1.22108  4.12437e-07  5.33261e-08    -0.107552 
         -25      1.28985  4.22766e-07  5.51885e-08    -0.107552 
         -25      1.36054  4.32407e-07  5.70013e-08    -0.107551 
         -25      1.43308  4.41649e-07   5.8673e-08    -0.107551 
         -25      1.50751  4.50346e-07  5.99696e-08    -0.107551 
         -25      1.58382  4.59129e-07  6.19577e-08    -0.107551 
         -25      1.66204  4.75705e-07  6.32108e-08    -0.107551 
         -25      1.74212  4.94008e-07  6.38263e-08    -0.107551 
         -25      1.82409  5.09504e-07  6.39311e-08     -0.10755 
         -25      1.90793  5.19175e-07  6.36751e-08     -0.10755 
         -25       1.9937  5.21476e-07  6.32256e-08     -0.10755 
         -25      2.08131   5.1621e-07  6.27598e-08     -0.10755 
         -25      2.17081  5.04343e-07  6.24552e-08     -0.10755 
         -25      2.26223  4.87729e-07    6.248e-08    -0.107549 
         -25       2.3555  4.68826e-07  6.29809e-08    -0.107549 
         -25      2.45065    4.503e-07  6.40717e-08    -0.107549 
         -25      2.54769  4.34668e-07  6.58212e-08    -0.107548 