Variables = x, y, u, v, p

Zone, I=3600, F=POINT
         -50            0            0            0    -0.731106 
         -50     0.000942 -3.92863e-07 -4.35121e-11    -0.731106 
         -50     0.003768 -1.21518e-06 -1.61405e-10    -0.731106 
         -50     0.008478 -1.76354e-06 -3.23723e-10    -0.731106 
         -50     0.015075 -1.71641e-06 -5.00856e-10    -0.731106 
         -50     0.023553 -1.44198e-06 -6.76252e-10    -0.731106 
         -50     0.033916 -1.44766e-06 -8.45121e-10    -0.731106 
         -50     0.046163 -1.58645e-06 -1.00209e-09    -0.731106 
         -50       0.0603 -1.42612e-06 -1.13559e-09    -0.731106 
         -50     0.076315 -1.54757e-06 -1.22015e-09    -0.731106 
         -50     0.094215 -1.45672e-06 -1.20769e-09    -0.731106 
         -50     0.113999 -1.45832e-06 -1.11783e-09    -0.731106 
         -50     0.135675 -1.44335e-06 -8.97903e-10    -0.731106 
         -50     0.159228 -1.44482e-06 -5.32239e-10    -0.731106 
         -50     0.184664 -1.44714e-06  1.74038e-11    -0.731106 
         -50     0.211985 -1.44493e-06  8.62685e-10    -0.731106 
         -50     0.241201 -1.45804e-06  2.13528e-09    -0.731106 
         -50      0.27229 -1.46324e-06   3.8926e-09    -0.731106 
         -50     0.305263 -1.47452e-06  6.48705e-09    -0.731105 
         -50     0.340135 -1.48578e-06  9.51376e-09    -0.731105 
         -50     0.376877 -1.49722e-06  1.23228e-08    -0.731105 
         -50     0.415503 -1.50819e-06  1.43831e-08    -0.731104 
         -50     0.456013 -1.51778e-06  1.56366e-08    -0.731104 
         -50     0.498424 -1.52562e-06  1.67601e-08    -0.731103 
         -50     0.542703  -1.5321e-06  1.90706e-08    -0.731103 
         -50     0.588866 -1.53747e-06  2.36819e-08    -0.731102 
         -50     0.636912 -1.54087e-06  3.07102e-08    -0.731102 
         -50     0.686864 -1.54304e-06  3.69635e-08    -0.731101 
         -50     0.738679 -1.54366e-06   4.1379e-08      -0.7311 
         -50     0.792379 -1.54289e-06  4.43523e-08    -0.731099 
         -50     0.847962 -1.54107e-06    4.642e-08    -0.731098 
         -50     0.905453 -1.53871e-06  4.81772e-08    -0.731097 
         -50     0.964806  -1.5364e-06  5.01701e-08    -0.731096 
         -50      1.02604  -1.5348e-06  5.27861e-08    -0.731094 
         -50      1.08919 -1.53451e-06  5.61516e-08    -0.731093 
         -50      1.15419 -1.53604e-06  6.00606e-08    -0.731091 
         -50      1.22108 -1.53966e-06  6.39923e-08    -0.731089 
         -50      1.28985 -1.54543e-06  6.72345e-08    -0.731087 
         -50      1.36054  -1.5531e-06  6.91994e-08    -0.731085 
         -50      1.43308 -1.56219e-06  6.99964e-08    -0.731083 
         -50      1.50751 -1.57205e-06  7.13515e-08     -0.73108 
         -50      1.58382  -1.5762e-06  7.24588e-08    -0.731077 
         -50      1.66204 -1.57969e-06  7.29976e-08    -0.731074 
         -50      1.74212 -1.58348e-06  7.28913e-08    -0.731071 
         -50      1.82409 -1.58835e-06   7.2046e-08    -0.731068 
         -50      1.90793 -1.59479e-06  7.03531e-08    -0.731064 
         -50       1.9937 -1.60313e-06  6.76938e-08    -0.731061 
         -50      2.08131 -1.61341e-06  6.39502e-08    -0.731056 
         -50      2.17081 -1.62549e-06  5.90071e-08    -0.731052 
         -50      2.26223 -1.63907e-06  5.27622e-08    -0.731047 
         -50       2.3555 -1.65364e-06  4.51455e-08    -0.731043 
         -50      2.45065 -1.66861e-06  3.61156e-08    -0.731037 
         -50      2.54769 -1.68333e-06    2.568e-08    -0.731032 
         -50      2.64665 -1.69712e-06  1.38985e-08    -0.731026 
         -50      2.74746 -1.70934e-06  9.13398e-10     -0.73102 
         -50      2.85014 -1.71945e-06 -1.30717e-08    -0.731013 
         -50      2.95472 -1.72703e-06 -2.77672e-08    -0.731006 
         -50      3.06122 -1.73184e-06 -4.28063e-08    -0.730999 
         -50      3.16956 -1.73379e-06 -5.77243e-08    -0.730991 
         -50      3.27979 -1.73296e-06 -7.20051e-08    -0.730983 
         -50       3.3919 -1.72951e-06  -8.5076e-08    -0.730974 
         -50      3.50594 -1.72359e-06 -9.63475e-08    -0.730965 
         -50      3.62181 -1.71516e-06 -1.05239e-07    -0.730956 
         -50      3.73958 -1.70372e-06 -1.11267e-07    -0.730946 
         -50      3.85927 -1.70049e-06 -1.23103e-07    -0.730936 
         -50       3.9808 -1.70329e-06  -1.2815e-07    -0.730925 
         -50      4.10422 -1.70392e-06  -1.3685e-07    -0.730913 
         -50      4.22952 -1.70179e-06  -1.4388e-07    -0.730902 
         -50      4.35675 -1.69927e-06 -1.50351e-07    -0.730889 
         -50      4.48582 -1.69693e-06 -1.56634e-07    -0.730876 
         -50      4.61677  -1.6943e-06 -1.62765e-07    -0.730863 
         -50      4.74961 -1.69065e-06 -1.68746e-07    -0.730849 
         -50      4.88438 -1.68557e-06 -1.74705e-07    -0.730834 
         -50      5.02099 -1.67937e-06  -1.8085e-07    -0.730818 
         -50      5.15948 -1.67318e-06 -1.87163e-07    -0.730802 
         -50      5.29985 -1.66863e-06 -1.92736e-07    -0.730786 
         -50      5.44217 -1.66699e-06 -1.94671e-07    -0.730769 
         -50      5.58631  -1.6576e-06 -1.98841e-07    -0.730751 
         -50      5.73233 -1.65536e-06 -2.01779e-07    -0.730732 
         -50      5.88024  -1.6557e-06 -2.04997e-07    -0.730712 
         -50       6.0301 -1.65641e-06  -2.0887e-07    -0.730692 
         -50      6.18178 -1.65656e-06 -2.12549e-07    -0.730671 
         -50      6.33534 -1.65533e-06 -2.14638e-07     -0.73065 
         -50      6.49085 -1.65165e-06 -2.14335e-07    -0.730627 
         -50      6.64818 -1.64508e-06 -2.13161e-07    -0.730604 
         -50      6.80739 -1.63762e-06 -2.17826e-07     -0.73058 
         -50      6.96849 -1.63564e-06  -2.2499e-07    -0.730555 
         -50      7.13154 -1.63951e-06 -2.24957e-07    -0.730529 
         -50      7.29641 -1.63388e-06 -2.31406e-07    -0.730503 
         -50      7.46316 -1.62996e-06 -2.36798e-07    -0.730475 
         -50       7.6318 -1.62568e-06 -2.37602e-07    -0.730447 
         -50      7.80239 -1.61977e-06 -2.36143e-07    -0.730417 
         -50      7.97479 -1.61263e-06 -2.35898e-07    -0.730387 
         -50      8.14908 -1.60562e-06 -2.39478e-07    -0.730356 
         -50      8.32526 -1.60028e-06 -2.47322e-07    -0.730324 
         -50      8.50338 -1.59764e-06 -2.57325e-07     -0.73029 
         -50      8.68333 -1.59749e-06 -2.65621e-07    -0.730256 
         -50      8.86515 -1.59588e-06 -2.66016e-07    -0.730221 
         -50      9.04894 -1.58906e-06  -2.6748e-07    -0.730184 
         -50      9.23453 -1.57826e-06  -2.8843e-07    -0.730147 
         -50      9.42201 -1.58028e-06 -2.71195e-07    -0.730108 
         -50      9.61137 -1.58436e-06 -2.77426e-07    -0.730069 
         -50      9.80269 -1.57938e-06 -2.80149e-07    -0.730028 
         -50      9.99583 -1.57147e-06 -2.80797e-07    -0.729986 
         -50      10.1908  -1.5646e-06 -2.81685e-07    -0.729943 
         -50      10.3877 -1.56062e-06 -2.84817e-07    -0.729899 
         -50      10.5866 -1.55953e-06 -2.91053e-07    -0.729853 
         -50      10.7873 -1.55978e-06 -2.99697e-07    -0.729807 
         -50      10.9898 -1.55903e-06 -3.08664e-07    -0.729759 
         -50      11.1943 -1.55495e-06 -3.15284e-07     -0.72971 
         -50      11.4007 -1.54652e-06 -3.17906e-07    -0.729659 
         -50      11.6089 -1.53555e-06 -3.18429e-07    -0.729607 
         -50       11.819 -1.52868e-06 -3.25918e-07    -0.729554 
         -50       12.031  -1.5289e-06 -3.36716e-07      -0.7295 
         -50      12.2449 -1.52475e-06 -3.41393e-07    -0.729444 
         -50      12.4606 -1.52109e-06  -3.4816e-07    -0.729387 
         -50      12.6782 -1.51978e-06 -3.55571e-07    -0.729329 
         -50      12.8978 -1.51929e-06 -3.62231e-07    -0.729269 
         -50      13.1192 -1.51202e-06 -3.65596e-07    -0.729208 
         -50      13.3425 -1.50315e-06 -3.67621e-07    -0.729145 
         -50      13.5677 -1.49596e-06 -3.70168e-07    -0.729081 
         -50      13.7948 -1.49042e-06 -3.73534e-07    -0.729016 
         -50      14.0237 -1.48618e-06 -3.77449e-07    -0.728949 
         -50      14.2546 -1.48265e-06 -3.81471e-07     -0.72888 
         -50      14.4873  -1.4793e-06 -3.85254e-07     -0.72881 
         -50      14.7219 -1.47568e-06 -3.88698e-07    -0.728739 
         -50      14.9584 -1.47166e-06 -3.91928e-07    -0.728666 
         -50      15.1968 -1.46746e-06 -3.95102e-07    -0.728592 
         -50      15.4371 -1.46376e-06 -3.97975e-07    -0.728515 
         -50      15.6792 -1.46166e-06 -3.99226e-07    -0.728438 
         -50      15.9232  -1.4627e-06 -3.95491e-07    -0.728359 
         -50      16.1691 -1.46006e-06 -4.04812e-07    -0.728278 
         -50       16.417 -1.45254e-06 -4.16422e-07    -0.728196 
         -50      16.6666 -1.44256e-06 -4.26207e-07    -0.728112 
         -50      16.9182 -1.43145e-06 -4.34778e-07    -0.728026 
         -50      17.1716 -1.42107e-06 -4.42367e-07    -0.727939 
         -50       17.427  -1.4142e-06 -4.48813e-07     -0.72785 
         -50      17.6842 -1.41781e-06 -4.56382e-07     -0.72776 
         -50      17.9433 -1.41679e-06 -4.58356e-07    -0.727668 
         -50      18.2042 -1.41106e-06 -4.55557e-07    -0.727574 
         -50      18.4672 -1.40402e-06  -4.5218e-07    -0.727478 
         -50      18.7319  -1.3976e-06 -4.51818e-07    -0.727381 
         -50      18.9985 -1.39255e-06 -4.55957e-07    -0.727282 
         -50       19.267 -1.38954e-06 -4.62643e-07    -0.727182 
         -50      19.5375 -1.39091e-06 -4.65358e-07     -0.72708 
         -50      19.8098 -1.40018e-06 -4.56558e-07    -0.726976 
         -50       20.084 -1.38506e-06 -4.78504e-07     -0.72687 
         -50      20.3601 -1.37369e-06 -4.91129e-07    -0.726763 
         -50       20.638 -1.36527e-06 -4.96578e-07    -0.726654 
         -50      20.9178 -1.35889e-06 -4.97046e-07    -0.726543 
         -50      21.1995 -1.35366e-06 -4.94629e-07     -0.72643 
         -50      21.4832  -1.3488e-06 -4.91216e-07    -0.726316 
         -50      21.7687 -1.34365e-06 -4.88398e-07      -0.7262 
         -50       22.056 -1.33776e-06 -4.87378e-07    -0.726082 
         -50      22.3452 -1.33092e-06 -4.88923e-07    -0.725963 
         -50      22.6365 -1.32312e-06  -4.9333e-07    -0.725841 
         -50      22.9295 -1.31463e-06 -5.00421e-07    -0.725718 
         -50      23.2243 -1.30591e-06 -5.09585e-07    -0.725594 
         -50      23.5211 -1.29758e-06  -5.1984e-07    -0.725467 
         -50      23.8199 -1.29032e-06 -5.29962e-07    -0.725339 
         -50      24.1204 -1.28477e-06 -5.38621e-07    -0.725209 
         -50      24.4228 -1.28134e-06 -5.44634e-07    -0.725077 
         -50      24.7272 -1.28008e-06 -5.47217e-07    -0.724944 
         -50      25.0334 -1.28036e-06 -5.46334e-07    -0.724809 
         -50      25.3415 -1.28065e-06 -5.43116e-07    -0.724672 
         -50      25.6514 -1.27541e-06 -5.43269e-07    -0.724533 
         -50      25.9634 -1.26021e-06  -5.5912e-07    -0.724393 
         -50      26.2771 -1.25664e-06 -5.46469e-07    -0.724251 
         -50      26.5927 -1.24171e-06 -5.51079e-07    -0.724107 
         -50      26.9102 -1.23415e-06 -5.54591e-07    -0.723962 
         -50      27.2297 -1.22997e-06 -5.57346e-07    -0.723815 
         -50       27.551 -1.22645e-06 -5.59411e-07    -0.723666 
         -50      27.8741 -1.22255e-06 -5.60833e-07    -0.723515 
         -50      28.1991 -1.21772e-06 -5.61825e-07    -0.723363 
         -50      28.5262 -1.21178e-06 -5.62583e-07    -0.723209 
         -50       28.855 -1.20491e-06 -5.63276e-07    -0.723054 
         -50      29.1856 -1.19741e-06 -5.64041e-07    -0.722897 
         -50      29.5183 -1.18972e-06 -5.64974e-07    -0.722738 
         -50      29.8528 -1.18226e-06  -5.6613e-07    -0.722578 
         -50      30.1891 -1.17538e-06 -5.67521e-07    -0.722416 
         -50      30.5273 -1.16931e-06 -5.69125e-07    -0.722252 
         -50      30.8676 -1.16411e-06 -5.70893e-07    -0.722087 
         -50      31.2096 -1.15968e-06  -5.7276e-07    -0.721921 
         -50      31.5534 -1.15572e-06 -5.74673e-07    -0.721752 
         -50      31.8992 -1.15181e-06 -5.76608e-07    -0.721583 
         -50      32.2469 -1.14744e-06 -5.78609e-07    -0.721411 
         -50      32.5965 -1.14215e-06 -5.80818e-07    -0.721238 
         -50      32.9479 -1.13558e-06 -5.83532e-07    -0.721064 
         -50      33.3012 -1.12775e-06 -5.87251e-07    -0.720888 
         -50      33.6565 -1.11918e-06 -5.92747e-07    -0.720711 
         -50      34.0135 -1.11121e-06 -6.01127e-07    -0.720532 
         -50      34.3725 -1.10189e-06 -5.98318e-07    -0.720352 
         -50      34.7334 -1.09078e-06 -5.87066e-07    -0.720171 
         -50      35.0962 -1.07876e-06 -5.80962e-07    -0.719988 
         -50      35.4608 -1.07724e-06 -5.84741e-07    -0.719803 
         -50      35.8272 -1.07842e-06 -5.87862e-07    -0.719618 
         -50      36.1957  -1.0754e-06 -5.89784e-07    -0.719431 
         -50       36.566  -1.0696e-06 -5.90782e-07    -0.719242 
         -50      36.9381 -1.06214e-06 -5.91104e-07    -0.719053 
         -50      37.3121 -1.05388e-06 -5.90975e-07    -0.718862 
         -50      37.6882 -1.04543e-06 -5.90595e-07     -0.71867 
         -50       38.066  -1.0372e-06 -5.90141e-07    -0.718476 
         -50      38.4456 -1.02943e-06 -5.89764e-07    -0.718282 
         -50      38.8272 -1.02219e-06 -5.89585e-07    -0.718086 
         -50      39.2108 -1.01548e-06 -5.89682e-07    -0.717889 
         -50      39.5961 -1.00922e-06  -5.9008e-07    -0.717691 
         -50      39.9833 -1.00327e-06 -5.90734e-07    -0.717492 
         -50      40.3724 -9.97506e-07  -5.9151e-07    -0.717291 
         -50      40.7635 -9.91803e-07 -5.92159e-07     -0.71709 
         -50      41.1564 -9.86114e-07 -5.92289e-07    -0.716887 
         -50      41.5511 -9.80466e-07 -5.91326e-07    -0.716684 
         -50      41.9479    -9.75e-07 -5.88478e-07    -0.716479 
         -50      42.3464 -9.69636e-07 -5.84117e-07    -0.716273 
         -50      42.7468 -9.61102e-07 -5.91119e-07    -0.716067 
         -50      43.1491 -9.53415e-07 -5.94869e-07    -0.715859 
         -50      43.5534 -9.46421e-07  -5.9708e-07    -0.715651 
         -50      43.9595 -9.40034e-07 -5.98948e-07    -0.715442 
         -50      44.3674 -9.34203e-07 -6.01131e-07    -0.715232 
         -50      44.7772 -9.28906e-07 -6.03726e-07    -0.715021 
         -50      45.1891 -9.24123e-07 -6.06251e-07    -0.714809 
         -50      45.6027 -9.19813e-07  -6.0763e-07    -0.714596 
         -50      46.0181 -9.13731e-07 -6.06796e-07    -0.714383 
         -50      46.4355 -9.04737e-07 -6.06212e-07    -0.714168 
         -50      46.8549 -8.96383e-07 -6.06068e-07    -0.713954 
         -50       47.276 -8.88878e-07 -6.05917e-07    -0.713738 
         -50       47.699 -8.82212e-07 -6.05376e-07    -0.713522 
         -50      48.1241 -8.76216e-07 -6.04249e-07    -0.713305 
         -50      48.5508 -8.70624e-07 -6.02586e-07    -0.713087 
         -50      48.9795 -8.65112e-07 -6.00673e-07    -0.712869 
         -50        49.41 -8.59369e-07 -5.98958e-07     -0.71265 
         -50      49.8426 -8.53157e-07 -5.97891e-07    -0.712431 
         -50      50.2769 -8.46381e-07 -5.97685e-07    -0.712211 
         -50      50.7131 -8.39152e-07 -5.97978e-07    -0.711991 
         -50      51.1512 -8.31865e-07 -5.97401e-07     -0.71177 
         -50      51.5914 -8.25269e-07 -5.93031e-07    -0.711549 
         -50      52.0332 -8.21158e-07 -5.93597e-07    -0.711327 
         -50      52.4769 -8.15984e-07 -5.94187e-07    -0.711105 
         -50      52.9225 -8.09972e-07 -5.92612e-07    -0.710883 
         -50      53.3702 -8.03738e-07 -5.89725e-07     -0.71066 
         -50      53.8196  -7.9762e-07 -5.86165e-07    -0.710437 
         -50      54.2709 -7.91744e-07 -5.82384e-07    -0.710214 
         -50      54.7242 -7.86106e-07 -5.78671e-07     -0.70999 
         -50      55.1792 -7.80633e-07  -5.7519e-07    -0.709766 
         -50      55.6362 -7.75223e-07    -5.72e-07    -0.709542 
         -50       56.095 -7.69788e-07 -5.69084e-07    -0.709318 
         -50      56.5558 -7.64269e-07 -5.66387e-07    -0.709094 
         -50      57.0184 -7.58651e-07 -5.63838e-07    -0.708869 
         -50      57.4829 -7.52938e-07 -5.61383e-07    -0.708645 
         -50      57.9492 -7.47131e-07 -5.59016e-07     -0.70842 
         -50      58.4176 -7.41171e-07 -5.56806e-07    -0.708195 
         -50      58.8877 -7.34878e-07 -5.54933e-07     -0.70797 
         -50      59.3597 -7.27838e-07 -5.53713e-07    -0.707745 
         -50      59.8336 -7.20455e-07  -5.5138e-07     -0.70752 
         -50      60.3096 -7.14529e-07 -5.48603e-07    -0.707295 
         -50      60.7872 -7.09767e-07 -5.45952e-07    -0.707071 
         -50      61.2667    -7.06e-07 -5.43466e-07    -0.706846 
         -50      61.7484 -7.03141e-07 -5.41142e-07    -0.706621 
         -50      62.2317 -7.01036e-07 -5.38903e-07    -0.706397 
         -50      62.7168 -6.99288e-07 -5.36568e-07    -0.706173 
         -50      63.2039 -6.97083e-07 -5.33846e-07    -0.705949 
         -50      63.6931 -6.89867e-07 -5.31483e-07    -0.705725 
         -50      64.1839 -6.81124e-07 -5.29427e-07    -0.705501 
         -50      64.6766 -6.74032e-07    -5.27e-07    -0.705277 
         -50      65.1712 -6.67809e-07 -5.24448e-07    -0.705054 
         -50      65.6679 -6.61989e-07  -5.2192e-07    -0.704831 
         -50      66.1663 -6.56353e-07 -5.19489e-07    -0.704609 
         -50      66.6665 -6.50849e-07 -5.17159e-07    -0.704387 
         -50      67.1687 -6.45531e-07 -5.14886e-07    -0.704165 
         -50      67.6729   -6.405e-07 -5.12589e-07    -0.703943 
         -50      68.1788 -6.35865e-07 -5.10169e-07    -0.703722 
         -50      68.6866 -6.31687e-07  -5.0752e-07    -0.703502 
         -50      69.1963 -6.27964e-07 -5.04545e-07    -0.703282 
         -50      69.7081 -6.24604e-07 -5.01166e-07    -0.703062 
         -50      70.2215 -6.21426e-07 -4.97348e-07    -0.702843 
         -50      70.7368 -6.18158e-07 -4.93099e-07    -0.702624 
         -50      71.2543 -6.14465e-07 -4.88488e-07    -0.702406 
         -50      71.7734 -6.09983e-07 -4.83664e-07    -0.702189 
         -50      72.2943 -6.04368e-07 -4.78855e-07    -0.701972 
         -50      72.8172 -5.97366e-07 -4.74385e-07    -0.701755 
         -50      73.3422 -5.89337e-07 -4.70765e-07     -0.70154 
         -50      73.8688 -5.88617e-07 -4.69294e-07    -0.701325 
         -50      74.3973 -5.84992e-07 -4.66797e-07     -0.70111 
         -50      74.9277  -5.8085e-07 -4.62886e-07    -0.700897 
         -50      75.4602 -5.78805e-07 -4.57299e-07    -0.700684 
         -50      75.9944 -5.77753e-07 -4.52768e-07    -0.700472 
         -50      76.5305 -5.74702e-07  -4.5019e-07     -0.70026 
         -50      77.0684 -5.70578e-07 -4.48144e-07     -0.70005 
         -50      77.6084 -5.65558e-07 -4.46335e-07     -0.69984 
         -50      78.1502 -5.59895e-07   -4.446e-07    -0.699631 
         -50      78.6937  -5.5389e-07 -4.42902e-07    -0.699423 
         -50      79.2394  -5.4787e-07 -4.41323e-07    -0.699215 
         -50      79.7868 -5.42841e-07 -4.39569e-07    -0.699009 
         -50      80.3361 -5.40353e-07 -4.36304e-07    -0.698803 
         -50      80.8872 -5.37656e-07 -4.33171e-07    -0.698599 
         -50      81.4404 -5.34729e-07 -4.30082e-07    -0.698395 
         -50      81.9953 -5.31594e-07 -4.26961e-07    -0.698193 
         -50      82.5521 -5.28296e-07 -4.23738e-07    -0.697991 
         -50      83.1108 -5.24896e-07 -4.20367e-07     -0.69779 
         -50      83.6715 -5.21461e-07 -4.16824e-07    -0.697591 
         -50       84.234 -5.18057e-07 -4.13114e-07    -0.697392 
         -50      84.7983  -5.1474e-07 -4.09266e-07    -0.697195 
         -50      85.3645 -5.11547e-07 -4.05333e-07    -0.696998 
         -50      85.9328 -5.08495e-07 -4.01382e-07    -0.696803 
         -50      86.5028 -5.05579e-07 -3.97499e-07    -0.696609 
         -50      87.0747 -5.02763e-07  -3.9376e-07    -0.696416 
         -50      87.6486 -4.99985e-07 -3.90228e-07    -0.696224 
         -50      88.2243 -4.97164e-07 -3.86934e-07    -0.696033 
         -50      88.8018 -4.94191e-07 -3.83852e-07    -0.695843 
         -50      89.3812 -4.90946e-07 -3.80876e-07    -0.695655 
         -50      89.9627 -4.87298e-07 -3.77789e-07    -0.695468 
         -50      90.5458 -4.83126e-07 -3.74233e-07    -0.695282 
         -50      91.1309 -4.79229e-07 -3.69957e-07    -0.695097 
         -50      91.7178 -4.77928e-07 -3.66527e-07    -0.694914 
         -50      92.3069 -4.75497e-07 -3.63278e-07    -0.694732 
         -50      92.8976 -4.72461e-07 -3.60036e-07    -0.694551 
         -50      93.4901 -4.69237e-07  -3.5667e-07    -0.694372 
         -50      94.0846 -4.66135e-07 -3.53098e-07    -0.694194 
         -50      94.6812 -4.63353e-07  -3.4927e-07    -0.694017 
         -50      95.2794 -4.60974e-07 -3.45174e-07    -0.693842 
         -50      95.8796 -4.58958e-07 -3.40813e-07    -0.693668 
         -50      96.4818 -4.57139e-07 -3.36209e-07    -0.693496 
         -50      97.0857  -4.5522e-07 -3.31398e-07    -0.693325 
         -50      97.6915 -4.52763e-07 -3.26411e-07    -0.693155 
         -50      98.2991 -4.49706e-07 -3.21605e-07    -0.692987 
         -50      98.9089 -4.47333e-07 -3.17626e-07    -0.692821 
         -50      99.5203 -4.44866e-07 -3.13713e-07    -0.692656 
         -50      100.134 -4.42361e-07 -3.09836e-07    -0.692492 
         -50      100.749 -4.39862e-07 -3.05976e-07    -0.692331 
         -50      101.366 -4.37406e-07  -3.0212e-07     -0.69217 
         -50      101.985 -4.35018e-07 -2.98262e-07    -0.692011 
         -50      102.606 -4.32717e-07 -2.94401e-07    -0.691854 
         -50      103.229 -4.30511e-07 -2.90536e-07    -0.691699 
         -50      103.854 -4.28406e-07  -2.8667e-07    -0.691545 
         -50       104.48 -4.26398e-07 -2.82809e-07    -0.691393 
         -50      105.108 -4.24481e-07 -2.78956e-07    -0.691242 
         -50      105.739  -4.2264e-07 -2.75111e-07    -0.691093 
         -50      106.371 -4.20857e-07 -2.71271e-07    -0.690946 
         -50      107.005 -4.19109e-07 -2.67431e-07      -0.6908 
         -50      107.641 -4.17367e-07 -2.63576e-07    -0.690656 
         -50      108.279 -4.15595e-07 -2.59679e-07    -0.690514 
         -50      108.919 -4.13753e-07 -2.55711e-07    -0.690374 
         -50       109.56 -4.11792e-07 -2.51624e-07    -0.690235 
         -50      110.204 -4.09654e-07 -2.47357e-07    -0.690099 
         -50      110.849 -4.07271e-07  -2.4283e-07    -0.689964 
         -50      111.497 -4.04566e-07 -2.37952e-07    -0.689831 
         -50      112.146 -4.03672e-07  -2.3372e-07      -0.6897 
         -50      112.797 -4.03286e-07 -2.30188e-07    -0.689571 
         -50       113.45 -4.01556e-07  -2.2633e-07    -0.689443 
         -50      114.105 -3.99326e-07 -2.22291e-07    -0.689318 
         -50      114.761 -3.97095e-07 -2.18164e-07    -0.689194 
         -50       115.42 -3.95104e-07 -2.14009e-07    -0.689072 
         -50      116.081 -3.93416e-07 -2.09855e-07    -0.688952 
         -50      116.743 -3.91988e-07 -2.05715e-07    -0.688834 
         -50      117.407 -3.90719e-07 -2.01582e-07    -0.688719 
         -50      118.073 -3.89497e-07 -1.97443e-07    -0.688605 
         -50      118.741 -3.88227e-07  -1.9329e-07    -0.688494 
         -50      119.411 -3.86847e-07 -1.89119e-07    -0.688385 
         -50      120.083 -3.85322e-07 -1.84941e-07    -0.688277 
         -50      120.757 -3.83631e-07  -1.8079e-07    -0.688172 
         -50      121.432  -3.8173e-07 -1.76735e-07    -0.688069 
         -50       122.11 -3.79496e-07 -1.72874e-07    -0.687968 
         -50      122.789 -3.76656e-07 -1.69353e-07    -0.687869 
         -50       123.47 -3.80548e-07 -1.65242e-07    -0.687772 
         -50      124.153 -3.81702e-07 -1.60921e-07    -0.687678 
         -50      124.838 -3.80829e-07 -1.56464e-07    -0.687586 
         -50      125.525 -3.78563e-07 -1.51936e-07    -0.687496 
         -50      126.214 -3.75433e-07 -1.47387e-07    -0.687408 
         -50      126.905  -3.7188e-07 -1.42865e-07    -0.687322 
         -50      127.597 -3.68251e-07 -1.38401e-07    -0.687238 
         -50      128.292  -3.6482e-07 -1.34012e-07    -0.687157 
         -50      128.988 -3.61788e-07 -1.29714e-07    -0.687077 
         -50      129.686 -3.59292e-07   -1.255e-07       -0.687 
         -50      130.386 -3.57408e-07 -1.21357e-07    -0.686925 
         -50      131.088 -3.56162e-07 -1.17253e-07    -0.686852 
         -50      131.792  -3.5553e-07 -1.13152e-07    -0.686781 
         -50      132.497 -3.55449e-07 -1.08996e-07    -0.686713 
         -50      133.205 -3.55814e-07 -1.04715e-07    -0.686647 
         -50      133.915 -3.56485e-07 -1.00221e-07    -0.686582 
         -50      134.626  -3.5674e-07 -9.58302e-08    -0.686521 
         -50      135.339 -3.59985e-07 -9.21571e-08    -0.686463 
         -50      136.054 -3.67126e-07 -8.82181e-08    -0.686406 
         -50      136.771 -3.74756e-07 -8.40566e-08    -0.686352 
         -50       137.49 -3.80191e-07  -7.9716e-08    -0.686301 
         -50      138.211  -3.8166e-07  -7.5232e-08    -0.686252 
         -50      138.934 -3.78381e-07  -7.0639e-08    -0.686205 
         -50      139.658 -3.70583e-07 -6.59767e-08    -0.686161 
         -50      140.385 -3.59434e-07 -6.12791e-08     -0.68612 
         -50      141.113 -3.46893e-07 -5.65819e-08    -0.686082 
         -50      141.843 -3.35461e-07  -5.1917e-08    -0.686046 
         -50      142.575 -3.27861e-07 -4.73181e-08    -0.686013 
         -50      143.309 -3.26575e-07 -4.28066e-08    -0.685982 
         -50      144.045 -3.33316e-07 -3.83952e-08    -0.685955 
         -50      144.783 -3.48382e-07 -3.40796e-08     -0.68593 
         -50      145.523 -3.69861e-07 -2.98394e-08    -0.685907 
         -50      146.264 -3.92779e-07 -2.56212e-08    -0.685888 
         -50      147.007 -4.08064e-07 -2.13375e-08    -0.685871 
         -50      147.753 -4.01399e-07 -1.68541e-08    -0.685858 
         -50        148.5 -3.51954e-07 -1.19872e-08    -0.685847 
         -50      149.249 -2.30958e-07 -6.48116e-09     -0.68584 
         -50          150 -2.08128e-21  -4.9034e-23    -0.685837 
         -25            0           -0           -0    -0.702637 
         -25     0.000942 -2.85992e-07 -1.63882e-11    -0.702637 
         -25     0.003768 -8.83388e-07 -5.97679e-11    -0.702637 
         -25     0.008478 -1.27778e-06  -1.1539e-10    -0.702637 
         -25     0.015075 -1.23439e-06 -1.65187e-10    -0.702637 
         -25     0.023553 -1.02319e-06 -1.91405e-10    -0.702637 
         -25     0.033916 -1.01618e-06 -1.74932e-10    -0.702637 
         -25     0.046163 -1.10661e-06  -8.9423e-11    -0.702637 
         -25       0.0603 -9.79109e-07  1.02387e-10    -0.702637 
         -25     0.076315 -1.05961e-06  4.50534e-10    -0.702637 
         -25     0.094215 -9.87321e-07  1.01746e-09    -0.702637 
         -25     0.113999  -9.8582e-07  1.85098e-09    -0.702637 
         -25     0.135675 -9.75674e-07  3.00872e-09    -0.702637 
         -25     0.159228 -9.81139e-07  4.53997e-09    -0.702637 
         -25     0.184664 -9.90623e-07  6.48577e-09    -0.702637 
         -25     0.211985  -9.9976e-07  8.86848e-09    -0.702637 
         -25     0.241201 -1.02252e-06  1.16997e-08    -0.702637 
         -25      0.27229 -1.04119e-06  1.49852e-08    -0.702637 
         -25     0.305263 -1.06529e-06  1.86529e-08    -0.702637 
         -25     0.340135 -1.08976e-06   2.2653e-08    -0.702636 
         -25     0.376877 -1.11423e-06   2.7002e-08    -0.702636 
         -25     0.415503 -1.13786e-06   3.1765e-08    -0.702636 
         -25     0.456013 -1.15965e-06   3.6996e-08    -0.702636 
         -25     0.498424 -1.17902e-06   4.2679e-08    -0.702636 
         -25     0.542703 -1.19594e-06  4.86754e-08    -0.702636 
         -25     0.588866 -1.21052e-06  5.47567e-08    -0.702635 
         -25     0.636912 -1.22213e-06  6.03198e-08    -0.702635 
         -25     0.686864 -1.23175e-06  6.55296e-08    -0.702635 
         -25     0.738679  -1.2397e-06  7.09144e-08    -0.702635 
         -25     0.792379 -1.24629e-06  7.65625e-08    -0.702634 
         -25     0.847962 -1.25176e-06   8.2412e-08    -0.702634 
         -25     0.905453 -1.25635e-06  8.82965e-08    -0.702633 
         -25     0.964806 -1.26018e-06  9.39918e-08    -0.702633 
         -25      1.02604 -1.26329e-06  9.92967e-08    -0.702632 
         -25      1.08919  -1.2656e-06  1.04092e-07    -0.702632 
         -25      1.15419 -1.26696e-06  1.08378e-07    -0.702631 
         -25      1.22108  -1.2672e-06  1.12296e-07     -0.70263 
         -25      1.28985 -1.26623e-06  1.16042e-07     -0.70263 
         -25      1.36054 -1.26427e-06  1.19683e-07    -0.702629 
         -25      1.43308 -1.26209e-06  1.22787e-07    -0.702628 
         -25      1.50751 -1.26121e-06  1.23988e-07    -0.702627 
         -25      1.58382 -1.24815e-06  1.30135e-07    -0.702626 
         -25      1.66204 -1.24165e-06  1.30737e-07    -0.702625 
         -25      1.74212 -1.23734e-06  1.28612e-07    -0.702624 
         -25      1.82409 -1.23168e-06  1.25973e-07    -0.702622 
         -25      1.90793 -1.22206e-06  1.24396e-07    -0.702621 
         -25       1.9937 -1.20678e-06   1.2481e-07     -0.70262 
         -25      2.08131 -1.18515e-06  1.27526e-07    -0.702618 
         -25      2.17081 -1.15735e-06  1.32283e-07    -0.702616 
         -25      2.26223  -1.1244e-06  1.38335e-07    -0.702615 
         -25       2.3555 -1.08807e-06  1.44549e-07    -0.702613 
         -25      2.45065 -1.05063e-06  1.49549e-07    -0.702611 
         -25      2.54769 -1.01475e-06  1.51864e-07    -0.702609 