Variables = x, y, u, v, p

Zone, I=3600, F=POINT
         -50            0            0            0     0.188605 
         -50     0.000942  6.19894e-07  2.96776e-11     0.188605 
         -50     0.003768  1.92568e-06  1.23009e-10     0.188605 
         -50     0.008478  2.82086e-06  2.91098e-10     0.188605 
         -50     0.015075  2.79594e-06  5.47051e-10     0.188605 
         -50     0.023553  2.41044e-06  8.98841e-10     0.188605 
         -50     0.033916  2.44994e-06  1.34406e-09     0.188605 
         -50     0.046163  2.69799e-06  1.86783e-09     0.188605 
         -50       0.0603  2.48863e-06  2.45226e-09     0.188605 
         -50     0.076315  2.70122e-06  3.10512e-09     0.188605 
         -50     0.094215  2.58832e-06  3.84404e-09     0.188605 
         -50     0.113999  2.61247e-06  4.63207e-09     0.188605 
         -50     0.135675  2.60712e-06  5.48097e-09     0.188605 
         -50     0.159228  2.62293e-06  6.42321e-09     0.188605 
         -50     0.184664  2.63462e-06  7.53285e-09     0.188605 
         -50     0.211985  2.63338e-06  8.91581e-09     0.188605 
         -50     0.241201  2.65058e-06  1.07285e-08     0.188605 
         -50      0.27229  2.65084e-06  1.30074e-08     0.188605 
         -50     0.305263  2.65744e-06   1.6105e-08     0.188605 
         -50     0.340135  2.66242e-06  1.98219e-08     0.188605 
         -50     0.376877  2.66772e-06  2.36384e-08     0.188604 
         -50     0.415503  2.67354e-06   2.6975e-08     0.188604 
         -50     0.456013  2.67924e-06  2.93588e-08     0.188604 
         -50     0.498424  2.68439e-06  3.06006e-08     0.188604 
         -50     0.542703   2.6894e-06  3.08915e-08     0.188604 
         -50     0.588866  2.69454e-06  3.06945e-08     0.188604 
         -50     0.636912  2.69763e-06  3.39498e-08     0.188604 
         -50     0.686864  2.70028e-06  3.89607e-08     0.188604 
         -50     0.738679  2.70268e-06  4.28037e-08     0.188603 
         -50     0.792379  2.70462e-06  4.56369e-08     0.188603 
         -50     0.847962  2.70603e-06  4.77989e-08     0.188603 
         -50     0.905453  2.70687e-06  4.97432e-08     0.188603 
         -50     0.964806  2.70717e-06  5.19428e-08     0.188602 
         -50      1.02604  2.70699e-06  5.47888e-08     0.188602 
         -50      1.08919  2.70632e-06  5.84822e-08     0.188601 
         -50      1.15419  2.70514e-06  6.29455e-08     0.188601 
         -50      1.22108  2.70328e-06  6.78001e-08     0.188601 
         -50      1.28985  2.70049e-06  7.24252e-08       0.1886 
         -50      1.36054  2.69643e-06  7.61725e-08     0.188599 
         -50      1.43308  2.69078e-06  7.87919e-08     0.188599 
         -50      1.50751  2.68348e-06  8.12618e-08     0.188598 
         -50      1.58382  2.67482e-06  8.78564e-08     0.188597 
         -50      1.66204  2.66007e-06   9.1192e-08     0.188597 
         -50      1.74212  2.64349e-06  9.29544e-08     0.188596 
         -50      1.82409  2.62865e-06  9.45521e-08     0.188595 
         -50      1.90793   2.6183e-06  9.70919e-08     0.188594 
         -50       1.9937  2.61441e-06  1.01376e-07     0.188593 
         -50      2.08131   2.6181e-06  1.07902e-07     0.188592 
         -50      2.17081  2.62967e-06   1.1689e-07     0.188591 
         -50      2.26223  2.64868e-06  1.28316e-07      0.18859 
         -50       2.3555  2.67396e-06  1.41937e-07     0.188588 
         -50      2.45065  2.70384e-06  1.57372e-07     0.188587 
         -50      2.54769   2.7362e-06  1.74142e-07     0.188586 
         -50      2.64665  2.76873e-06   1.9175e-07     0.188584 
         -50      2.74746  2.79902e-06  2.09709e-07     0.188582 
         -50      2.85014  2.82491e-06  2.27639e-07     0.188581 
         -50      2.95472   2.8446e-06  2.45277e-07     0.188579 
         -50      3.06122  2.85688e-06  2.62494e-07     0.188577 
         -50      3.16956  2.86129e-06  2.79247e-07     0.188575 
         -50      3.27979  2.85827e-06  2.95528e-07     0.188573 
         -50       3.3919  2.84918e-06  3.11191e-07      0.18857 
         -50      3.50594  2.83622e-06  3.25718e-07     0.188568 
         -50      3.62181  2.82225e-06  3.37847e-07     0.188566 
         -50      3.73958  2.81039e-06  3.45108e-07     0.188563 
         -50      3.85927  2.79101e-06  3.57788e-07      0.18856 
         -50       3.9808  2.78303e-06  3.66332e-07     0.188557 
         -50      4.10422  2.77568e-06  3.76459e-07     0.188554 
         -50      4.22952  2.76304e-06  3.83062e-07     0.188551 
         -50      4.35675  2.74706e-06  3.89596e-07     0.188548 
         -50      4.48582  2.72965e-06  3.95927e-07     0.188544 
         -50      4.61677  2.71237e-06  4.00703e-07     0.188541 
         -50      4.74961  2.69631e-06  4.03142e-07     0.188537 
         -50      4.88438  2.68197e-06  4.03998e-07     0.188533 
         -50      5.02099  2.66915e-06   4.0534e-07     0.188529 
         -50      5.15948  2.65693e-06  4.08758e-07     0.188525 
         -50      5.29985  2.64383e-06  4.11539e-07     0.188521 
         -50      5.44217    2.628e-06  4.00298e-07     0.188516 
         -50      5.58631  2.61189e-06  4.15478e-07     0.188511 
         -50      5.73233  2.60223e-06  4.14969e-07     0.188506 
         -50      5.88024  2.59569e-06  4.15594e-07     0.188501 
         -50       6.0301  2.59027e-06   4.2251e-07     0.188496 
         -50      6.18178  2.58442e-06  4.32876e-07      0.18849 
         -50      6.33534  2.57647e-06  4.41613e-07     0.188485 
         -50      6.49085  2.56477e-06  4.45706e-07     0.188479 
         -50      6.64818  2.54862e-06  4.46478e-07     0.188472 
         -50      6.80739  2.53336e-06  4.54621e-07     0.188466 
         -50      6.96849   2.5246e-06  4.66591e-07      0.18846 
         -50      7.13154  2.51719e-06  4.56958e-07     0.188453 
         -50      7.29641  2.51309e-06  4.62845e-07     0.188446 
         -50      7.46316  2.50786e-06  4.68546e-07     0.188438 
         -50       7.6318  2.50429e-06  4.66857e-07     0.188431 
         -50      7.80239  2.50172e-06  4.61388e-07     0.188423 
         -50      7.97479  2.49788e-06  4.58021e-07     0.188415 
         -50      8.14908  2.49062e-06  4.60696e-07     0.188407 
         -50      8.32526  2.47921e-06  4.68931e-07     0.188398 
         -50      8.50338  2.46495e-06  4.77531e-07     0.188389 
         -50      8.68333  2.45106e-06  4.79065e-07      0.18838 
         -50      8.86515  2.44429e-06  4.71323e-07     0.188371 
         -50      9.04894  2.44502e-06  4.68288e-07     0.188361 
         -50      9.23453  2.44421e-06  5.05267e-07     0.188351 
         -50      9.42201  2.44832e-06  5.02039e-07     0.188341 
         -50      9.61137  2.43988e-06  4.91263e-07     0.188331 
         -50      9.80269   2.4318e-06  4.96578e-07      0.18832 
         -50      9.99583  2.42579e-06  5.08811e-07     0.188309 
         -50      10.1908  2.42202e-06  5.22077e-07     0.188297 
         -50      10.3877  2.41956e-06  5.33336e-07     0.188286 
         -50      10.5866  2.41683e-06  5.41853e-07     0.188273 
         -50      10.7873   2.4122e-06  5.48533e-07     0.188261 
         -50      10.9898  2.40444e-06  5.55162e-07     0.188248 
         -50      11.1943   2.3934e-06   5.6349e-07     0.188235 
         -50      11.4007  2.38055e-06   5.7419e-07     0.188222 
         -50      11.6089  2.36968e-06  5.85642e-07     0.188208 
         -50       11.819  2.36747e-06  5.92607e-07     0.188194 
         -50       12.031  2.36255e-06  5.95391e-07      0.18818 
         -50      12.2449  2.35588e-06  6.01383e-07     0.188165 
         -50      12.4606  2.35505e-06  6.04477e-07      0.18815 
         -50      12.6782  2.35548e-06  6.03579e-07     0.188134 
         -50      12.8978   2.3552e-06  6.01476e-07     0.188119 
         -50      13.1192  2.35196e-06  5.99465e-07     0.188102 
         -50      13.3425  2.34597e-06   6.0244e-07     0.188086 
         -50      13.5677  2.33811e-06  6.10629e-07     0.188069 
         -50      13.7948  2.32859e-06  6.21195e-07     0.188051 
         -50      14.0237  2.31838e-06  6.32126e-07     0.188034 
         -50      14.2546  2.30876e-06  6.42104e-07     0.188016 
         -50      14.4873  2.30102e-06   6.5038e-07     0.187997 
         -50      14.7219  2.29604e-06  6.56695e-07     0.187978 
         -50      14.9584  2.29395e-06  6.61257e-07     0.187959 
         -50      15.1968  2.29379e-06  6.64798e-07     0.187939 
         -50      15.4371  2.29314e-06  6.68682e-07     0.187919 
         -50      15.6792  2.28788e-06  6.75111e-07     0.187898 
         -50      15.9232  2.27189e-06  6.87437e-07     0.187877 
         -50      16.1691  2.26233e-06  6.91468e-07     0.187856 
         -50       16.417  2.25465e-06  6.95725e-07     0.187834 
         -50      16.6666  2.24697e-06  7.03721e-07     0.187812 
         -50      16.9182  2.24138e-06  7.14916e-07     0.187789 
         -50      17.1716  2.23943e-06  7.27792e-07     0.187766 
         -50       17.427  2.24204e-06  7.39069e-07     0.187743 
         -50      17.6842    2.229e-06  7.44609e-07     0.187719 
         -50      17.9433  2.21774e-06  7.43463e-07     0.187694 
         -50      18.2042  2.21451e-06  7.42738e-07      0.18767 
         -50      18.4672  2.21447e-06    7.468e-07     0.187644 
         -50      18.7319  2.21315e-06  7.56016e-07     0.187619 
         -50      18.9985  2.20725e-06  7.67622e-07     0.187593 
         -50       19.267  2.19542e-06  7.77479e-07     0.187566 
         -50      19.5375  2.17932e-06  7.82893e-07     0.187539 
         -50      19.8098  2.16612e-06  7.88341e-07     0.187511 
         -50       20.084  2.16572e-06  8.04917e-07     0.187483 
         -50      20.3601  2.15941e-06  8.08816e-07     0.187455 
         -50       20.638  2.15021e-06  8.06606e-07     0.187426 
         -50      20.9178  2.14021e-06  8.02834e-07     0.187397 
         -50      21.1995  2.13075e-06  8.00347e-07     0.187367 
         -50      21.4832  2.12249e-06  8.00616e-07     0.187337 
         -50      21.7687  2.11561e-06  8.04045e-07     0.187306 
         -50       22.056  2.10986e-06  8.10272e-07     0.187275 
         -50      22.3452  2.10473e-06  8.18445e-07     0.187244 
         -50      22.6365  2.09959e-06  8.27478e-07     0.187212 
         -50      22.9295  2.09378e-06  8.36255e-07     0.187179 
         -50      23.2243  2.08676e-06  8.43836e-07     0.187146 
         -50      23.5211  2.07816e-06  8.49572e-07     0.187113 
         -50      23.8199  2.06794e-06  8.53194e-07     0.187079 
         -50      24.1204  2.05643e-06  8.54824e-07     0.187045 
         -50      24.4228  2.04442e-06  8.54931e-07      0.18701 
         -50      24.7272  2.03316e-06  8.54189e-07     0.186975 
         -50      25.0334  2.02448e-06  8.53254e-07     0.186939 
         -50      25.3415  2.02068e-06  8.52433e-07     0.186903 
         -50      25.6514  2.02531e-06  8.55016e-07     0.186866 
         -50      25.9634  2.03115e-06  8.87849e-07     0.186829 
         -50      26.2771  2.01581e-06  8.84536e-07     0.186792 
         -50      26.5927  2.01751e-06  8.81297e-07     0.186754 
         -50      26.9102  2.01073e-06  8.77628e-07     0.186716 
         -50      27.2297  1.99346e-06   8.7521e-07     0.186677 
         -50       27.551  1.97399e-06  8.75725e-07     0.186637 
         -50      27.8741  1.95529e-06  8.78494e-07     0.186598 
         -50      28.1991   1.9384e-06   8.8277e-07     0.186558 
         -50      28.5262  1.92385e-06  8.87856e-07     0.186517 
         -50       28.855  1.91181e-06  8.93146e-07     0.186476 
         -50      29.1856  1.90206e-06  8.98168e-07     0.186435 
         -50      29.5183  1.89417e-06  9.02602e-07     0.186393 
         -50      29.8528  1.88751e-06  9.06289e-07     0.186351 
         -50      30.1891  1.88134e-06  9.09245e-07     0.186308 
         -50      30.5273  1.87492e-06   9.1164e-07     0.186265 
         -50      30.8676  1.86753e-06  9.13778e-07     0.186222 
         -50      31.2096  1.85864e-06  9.16048e-07     0.186178 
         -50      31.5534  1.84787e-06  9.18869e-07     0.186133 
         -50      31.8992  1.83516e-06  9.22605e-07     0.186089 
         -50      32.2469   1.8208e-06  9.27465e-07     0.186044 
         -50      32.5965  1.80553e-06  9.33369e-07     0.185998 
         -50      32.9479  1.79054e-06  9.39804e-07     0.185952 
         -50      33.3012   1.7776e-06  9.45634e-07     0.185906 
         -50      33.6565  1.76909e-06  9.48892e-07      0.18586 
         -50      34.0135  1.76804e-06  9.46529e-07     0.185813 
         -50      34.3725  1.76795e-06  9.37866e-07     0.185765 
         -50      34.7334  1.76095e-06  9.34066e-07     0.185717 
         -50      35.0962  1.75268e-06  9.37769e-07     0.185669 
         -50      35.4608   1.7392e-06   9.3788e-07     0.185621 
         -50      35.8272  1.72309e-06  9.35782e-07     0.185572 
         -50      36.1957  1.70903e-06  9.37208e-07     0.185523 
         -50       36.566  1.69676e-06  9.40707e-07     0.185474 
         -50      36.9381  1.68582e-06  9.45105e-07     0.185424 
         -50      37.3121  1.67566e-06  9.49503e-07     0.185374 
         -50      37.6882  1.66577e-06  9.53265e-07     0.185323 
         -50       38.066  1.65575e-06  9.55994e-07     0.185272 
         -50      38.4456  1.64536e-06  9.57525e-07     0.185221 
         -50      38.8272  1.63455e-06  9.57879e-07      0.18517 
         -50      39.2108  1.62346e-06  9.57239e-07     0.185118 
         -50      39.5961  1.61241e-06  9.55896e-07     0.185066 
         -50      39.9833  1.60179e-06  9.54202e-07     0.185014 
         -50      40.3724  1.59196e-06  9.52501e-07     0.184961 
         -50      40.7635  1.58308e-06   9.5106e-07     0.184909 
         -50      41.1564  1.57492e-06  9.49989e-07     0.184856 
         -50      41.5511  1.56659e-06  9.49137e-07     0.184802 
         -50      41.9479  1.55618e-06  9.47991e-07     0.184749 
         -50      42.3464  1.54131e-06   9.4613e-07     0.184695 
         -50      42.7468  1.53134e-06  9.48961e-07     0.184641 
         -50      43.1491  1.52039e-06   9.5086e-07     0.184586 
         -50      43.5534  1.50917e-06  9.51926e-07     0.184532 
         -50      43.9595  1.49832e-06  9.52185e-07     0.184477 
         -50      44.3674  1.48816e-06  9.51503e-07     0.184422 
         -50      44.7772  1.47864e-06   9.4948e-07     0.184366 
         -50      45.1891  1.46917e-06  9.45338e-07     0.184311 
         -50      45.6027  1.45859e-06    9.378e-07     0.184255 
         -50      46.0181  1.44676e-06  9.30923e-07     0.184199 
         -50      46.4355  1.43717e-06  9.31179e-07     0.184143 
         -50      46.8549  1.42855e-06   9.3106e-07     0.184087 
         -50       47.276  1.42047e-06  9.30161e-07     0.184031 
         -50       47.699  1.41254e-06  9.28388e-07     0.183974 
         -50      48.1241  1.40441e-06  9.25898e-07     0.183917 
         -50      48.5508  1.39578e-06  9.23035e-07      0.18386 
         -50      48.9795  1.38635e-06  9.20251e-07     0.183803 
         -50        49.41  1.37598e-06  9.18014e-07     0.183746 
         -50      49.8426  1.36465e-06  9.16715e-07     0.183689 
         -50      50.2769   1.3527e-06  9.16551e-07     0.183631 
         -50      50.7131  1.34091e-06  9.17401e-07     0.183574 
         -50      51.1512  1.33069e-06  9.18684e-07     0.183516 
         -50      51.5914  1.32437e-06  9.19208e-07     0.183458 
         -50      52.0332  1.31427e-06  9.17858e-07       0.1834 
         -50      52.4769  1.30328e-06  9.15591e-07     0.183342 
         -50      52.9225  1.29317e-06  9.12778e-07     0.183284 
         -50      53.3702  1.28341e-06  9.09653e-07     0.183226 
         -50      53.8196  1.27368e-06  9.06381e-07     0.183168 
         -50      54.2709  1.26383e-06  9.03072e-07      0.18311 
         -50      54.7242  1.25383e-06  8.99793e-07     0.183051 
         -50      55.1792   1.2438e-06  8.96593e-07     0.182993 
         -50      55.6362   1.2339e-06  8.93498e-07     0.182934 
         -50       56.095  1.22432e-06  8.90524e-07     0.182876 
         -50      56.5558  1.21525e-06  8.87682e-07     0.182817 
         -50      57.0184  1.20681e-06  8.84975e-07     0.182759 
         -50      57.4829  1.19903e-06  8.82393e-07       0.1827 
         -50      57.9492  1.19179e-06  8.79901e-07     0.182642 
         -50      58.4176  1.18477e-06  8.77428e-07     0.182583 
         -50      58.8877  1.17743e-06  8.74851e-07     0.182524 
         -50      59.3597  1.16889e-06  8.71959e-07     0.182466 
         -50      59.8336  1.15796e-06  8.67082e-07     0.182407 
         -50      60.3096  1.14907e-06  8.62254e-07     0.182349 
         -50      60.7872  1.14132e-06  8.57936e-07      0.18229 
         -50      61.2667  1.13349e-06  8.54121e-07     0.182232 
         -50      61.7484  1.12492e-06  8.50875e-07     0.182173 
         -50      62.2317   1.1156e-06  8.48274e-07     0.182115 
         -50      62.7168  1.10613e-06  8.46323e-07     0.182056 
         -50      63.2039  1.09784e-06  8.44859e-07     0.181998 
         -50      63.6931  1.09259e-06  8.38835e-07      0.18194 
         -50      64.1839  1.08628e-06  8.30764e-07     0.181881 
         -50      64.6766  1.07848e-06  8.24839e-07     0.181823 
         -50      65.1712  1.07013e-06  8.20334e-07     0.181765 
         -50      65.6679  1.06186e-06  8.16678e-07     0.181707 
         -50      66.1663  1.05404e-06  8.13431e-07     0.181649 
         -50      66.6665  1.04679e-06  8.10255e-07     0.181592 
         -50      67.1687  1.04008e-06  8.06896e-07     0.181534 
         -50      67.6729  1.03372e-06  8.03169e-07     0.181477 
         -50      68.1788  1.02747e-06  7.98951e-07     0.181419 
         -50      68.6866  1.02104e-06  7.94168e-07     0.181362 
         -50      69.1963  1.01415e-06  7.88797e-07     0.181305 
         -50      69.7081  1.00659e-06  7.82875e-07     0.181248 
         -50      70.2215  9.98268e-07  7.76512e-07     0.181191 
         -50      70.7368  9.89258e-07  7.69903e-07     0.181134 
         -50      71.2543  9.79829e-07  7.63361e-07     0.181078 
         -50      71.7734  9.70522e-07  7.57356e-07     0.181021 
         -50      72.2943  9.62171e-07  7.52548e-07     0.180965 
         -50      72.8172  9.55963e-07  7.49844e-07     0.180909 
         -50      73.3422  9.53352e-07  7.50374e-07     0.180853 
         -50      73.8688   9.4911e-07  7.48789e-07     0.180797 
         -50      74.3973  9.43578e-07  7.43918e-07     0.180742 
         -50      74.9277  9.37591e-07   7.3705e-07     0.180687 
         -50      75.4602  9.31472e-07  7.29944e-07     0.180631 
         -50      75.9944  9.23425e-07  7.23209e-07     0.180576 
         -50      76.5305    9.156e-07  7.17319e-07     0.180522 
         -50      77.0684  9.08781e-07  7.12136e-07     0.180467 
         -50      77.6084  9.02676e-07  7.07035e-07     0.180413 
         -50      78.1502  8.97185e-07   7.0155e-07     0.180359 
         -50      78.6937  8.92386e-07   6.9537e-07     0.180305 
         -50      79.2394  8.88533e-07  6.88349e-07     0.180252 
         -50      79.7868  8.85066e-07  6.81018e-07     0.180199 
         -50      80.3361  8.78125e-07  6.75452e-07     0.180146 
         -50      80.8872  8.70659e-07  6.70211e-07     0.180093 
         -50      81.4404  8.63005e-07  6.65229e-07      0.18004 
         -50      81.9953  8.55463e-07  6.60437e-07     0.179988 
         -50      82.5521  8.48263e-07  6.55758e-07     0.179936 
         -50      83.1108  8.41567e-07  6.51121e-07     0.179884 
         -50      83.6715  8.35458e-07  6.46464e-07     0.179833 
         -50       84.234  8.29952e-07  6.41741e-07     0.179782 
         -50      84.7983  8.24983e-07  6.36917e-07     0.179731 
         -50      85.3645  8.20425e-07  6.31975e-07     0.179681 
         -50      85.9328  8.16107e-07   6.2691e-07      0.17963 
         -50      86.5028  8.11836e-07  6.21739e-07      0.17958 
         -50      87.0747  8.07422e-07  6.16481e-07     0.179531 
         -50      87.6486  8.02714e-07  6.11157e-07     0.179482 
         -50      88.2243  7.97654e-07  6.05793e-07     0.179433 
         -50      88.8018  7.92313e-07  6.00393e-07     0.179384 
         -50      89.3812  7.86964e-07  5.94937e-07     0.179336 
         -50      89.9627  7.82141e-07  5.89363e-07     0.179288 
         -50      90.5458  7.78731e-07  5.83557e-07      0.17924 
         -50      91.1309  7.76715e-07  5.77241e-07     0.179193 
         -50      91.7178  7.71041e-07  5.70858e-07     0.179146 
         -50      92.3069  7.65902e-07  5.65075e-07       0.1791 
         -50      92.8976  7.61142e-07  5.59602e-07     0.179053 
         -50      93.4901  7.56649e-07   5.5421e-07     0.179008 
         -50      94.0846  7.52355e-07  5.48743e-07     0.178962 
         -50      94.6812  7.48229e-07  5.43114e-07     0.178917 
         -50      95.2794  7.44273e-07  5.37313e-07     0.178873 
         -50      95.8796  7.40513e-07  5.31402e-07     0.178828 
         -50      96.4818  7.37004e-07  5.25511e-07     0.178785 
         -50      97.0857   7.3383e-07  5.19851e-07     0.178741 
         -50      97.6915  7.31106e-07  5.14694e-07     0.178698 
         -50      98.2991  7.27366e-07  5.09274e-07     0.178655 
         -50      98.9089  7.20568e-07   5.0191e-07     0.178613 
         -50      99.5203  7.14808e-07  4.95136e-07     0.178571 
         -50      100.134  7.09899e-07  4.88771e-07      0.17853 
         -50      100.749  7.05668e-07  4.82659e-07     0.178489 
         -50      101.366  7.01954e-07  4.76665e-07     0.178448 
         -50      101.985   6.9862e-07  4.70683e-07     0.178408 
         -50      102.606  6.95544e-07  4.64625e-07     0.178368 
         -50      103.229  6.92627e-07   4.5843e-07     0.178329 
         -50      103.854  6.89788e-07   4.5206e-07     0.178291 
         -50       104.48  6.86972e-07  4.45512e-07     0.178252 
         -50      105.108  6.84137e-07  4.38794e-07     0.178214 
         -50      105.739  6.81256e-07  4.31944e-07     0.178177 
         -50      106.371   6.7831e-07  4.25014e-07      0.17814 
         -50      107.005  6.75289e-07  4.18083e-07     0.178104 
         -50      107.641  6.72175e-07  4.11233e-07     0.178068 
         -50      108.279  6.68934e-07  4.04556e-07     0.178033 
         -50      108.919  6.65517e-07  3.98157e-07     0.177998 
         -50       109.56  6.61831e-07  3.92129e-07     0.177963 
         -50      110.204  6.57738e-07   3.8656e-07     0.177929 
         -50      110.849  6.53029e-07  3.81518e-07     0.177896 
         -50      111.497   6.4742e-07  3.77052e-07     0.177862 
         -50      112.146  6.46441e-07  3.70149e-07      0.17783 
         -50      112.797  6.47671e-07  3.61465e-07     0.177798 
         -50       113.45  6.45764e-07   3.5401e-07     0.177767 
         -50      114.105  6.42388e-07    3.473e-07     0.177736 
         -50      114.761  6.38636e-07  3.40976e-07     0.177706 
         -50       115.42  6.35158e-07  3.34798e-07     0.177677 
         -50      116.081  6.32272e-07   3.2862e-07     0.177648 
         -50      116.743  6.30061e-07  3.22379e-07     0.177619 
         -50      117.407  6.28445e-07   3.1606e-07     0.177591 
         -50      118.073  6.27243e-07  3.09683e-07     0.177563 
         -50      118.741  6.26214e-07  3.03291e-07     0.177535 
         -50      119.411  6.25066e-07  2.96911e-07     0.177508 
         -50      120.083  6.23457e-07  2.90545e-07     0.177482 
         -50      120.757  6.20957e-07  2.84144e-07     0.177456 
         -50      121.432     6.17e-07  2.77593e-07     0.177431 
         -50       122.11   6.1079e-07  2.70678e-07     0.177407 
         -50      122.789  6.01197e-07  2.63073e-07     0.177384 
         -50       123.47   6.0958e-07  2.56459e-07      0.17736 
         -50      124.153  6.13066e-07  2.49676e-07     0.177338 
         -50      124.838  6.12875e-07  2.42757e-07     0.177315 
         -50      125.525  6.10095e-07  2.35744e-07     0.177294 
         -50      126.214  6.05629e-07  2.28674e-07     0.177273 
         -50      126.905  6.00215e-07  2.21586e-07     0.177252 
         -50      127.597  5.94437e-07  2.14507e-07     0.177233 
         -50      128.292  5.88752e-07  2.07457e-07     0.177214 
         -50      128.988  5.83512e-07  2.00454e-07     0.177195 
         -50      129.686  5.78976e-07  1.93501e-07     0.177178 
         -50      130.386  5.75333e-07  1.86588e-07     0.177161 
         -50      131.088  5.72725e-07  1.79692e-07     0.177146 
         -50      131.792  5.71265e-07   1.7278e-07     0.177131 
         -50      132.497  5.71052e-07  1.65797e-07     0.177117 
         -50      133.205  5.72197e-07   1.5867e-07     0.177104 
         -50      133.915  5.74838e-07  1.51303e-07     0.177092 
         -50      134.626  5.77649e-07  1.43879e-07      0.17708 
         -50      135.339  5.83787e-07  1.37157e-07     0.177068 
         -50      136.054  5.95597e-07  1.30529e-07     0.177057 
         -50      136.771  6.07856e-07  1.23905e-07     0.177048 
         -50       137.49  6.16433e-07   1.1723e-07     0.177039 
         -50      138.211  6.18602e-07  1.10467e-07     0.177031 
         -50      138.934  6.13174e-07  1.03597e-07     0.177023 
         -50      139.658   6.0055e-07  9.66267e-08     0.177016 
         -50      140.385  5.82609e-07  8.95675e-08      0.17701 
         -50      141.113  5.62483e-07  8.24414e-08     0.177005 
         -50      141.843  5.44163e-07  7.52734e-08        0.177 
         -50      142.575  5.31995e-07  6.80999e-08     0.176995 
         -50      143.309  5.29931e-07  6.09485e-08     0.176991 
         -50      144.045  5.40698e-07  5.38471e-08     0.176988 
         -50      144.783  5.64753e-07  4.68162e-08     0.176986 
         -50      145.523  5.99007e-07  3.98783e-08     0.176984 
         -50      146.264  6.35453e-07  3.30396e-08     0.176983 
         -50      147.007  6.59506e-07  2.63001e-08     0.176983 
         -50      147.753  6.48146e-07   1.9648e-08     0.176983 
         -50        148.5  5.67878e-07  1.30695e-08     0.176984 
         -50      149.249  3.72429e-07  6.53342e-09     0.176985 
         -50          150  3.35461e-21  4.51927e-23     0.176986 
         -25            0           -0           -0     0.181182 
         -25     0.000942  4.51238e-07  1.17555e-11     0.181182 
         -25     0.003768  1.39995e-06  4.61822e-11     0.181182 
         -25     0.008478  2.04455e-06  9.99589e-11     0.181182 
         -25     0.015075  2.01305e-06  1.65185e-10     0.181182 
         -25     0.023553  1.71563e-06  2.26609e-10     0.181182 
         -25     0.033916  1.72792e-06   2.5981e-10     0.181182 
         -25     0.046163  1.89263e-06  2.31268e-10     0.181182 
         -25       0.0603  1.72366e-06  1.03034e-10     0.181182 
         -25     0.076315  1.86512e-06 -1.53766e-10     0.181181 
         -25     0.094215  1.77096e-06 -5.63631e-10     0.181181 
         -25     0.113999  1.77995e-06 -1.16946e-09     0.181181 
         -25     0.135675  1.77043e-06 -1.99389e-09     0.181181 
         -25     0.159228  1.77935e-06 -3.05697e-09     0.181181 
         -25     0.184664  1.78786e-06 -4.37289e-09     0.181181 
         -25     0.211985  1.78894e-06 -5.95388e-09     0.181181 
         -25     0.241201  1.80485e-06 -7.80706e-09     0.181181 
         -25      0.27229  1.80894e-06 -9.93385e-09     0.181181 
         -25     0.305263  1.81755e-06 -1.23157e-08     0.181181 
         -25     0.340135  1.82419e-06 -1.49295e-08     0.181181 
         -25     0.376877  1.82966e-06 -1.76877e-08     0.181181 
         -25     0.415503  1.83369e-06 -2.04753e-08     0.181181 
         -25     0.456013  1.83557e-06 -2.32093e-08     0.181181 
         -25     0.498424  1.83508e-06 -2.59029e-08     0.181181 
         -25     0.542703  1.83284e-06 -2.86878e-08     0.181181 
         -25     0.588866  1.82949e-06 -3.17506e-08     0.181181 
         -25     0.636912  1.82459e-06 -3.50157e-08     0.181181 
         -25     0.686864  1.81968e-06 -3.83385e-08     0.181181 
         -25     0.738679  1.81515e-06 -4.17165e-08     0.181181 
         -25     0.792379  1.81157e-06 -4.50746e-08     0.181181 
         -25     0.847962  1.80938e-06 -4.83137e-08     0.181181 
         -25     0.905453  1.80883e-06 -5.13276e-08     0.181181 
         -25     0.964806     1.81e-06  -5.4017e-08      0.18118 
         -25      1.02604  1.81279e-06 -5.63153e-08      0.18118 
         -25      1.08919  1.81697e-06 -5.82021e-08      0.18118 
         -25      1.15419  1.82221e-06 -5.97112e-08      0.18118 
         -25      1.22108  1.82822e-06 -6.09321e-08      0.18118 
         -25      1.28985  1.83481e-06  -6.1981e-08      0.18118 
         -25      1.36054  1.84211e-06 -6.29436e-08     0.181179 
         -25      1.43308  1.85078e-06 -6.37666e-08     0.181179 
         -25      1.50751  1.86209e-06 -6.41242e-08     0.181179 
         -25      1.58382  1.86673e-06 -6.52085e-08     0.181179 
         -25      1.66204  1.87713e-06 -6.43219e-08     0.181178 
         -25      1.74212  1.89161e-06  -6.2071e-08     0.181178 
         -25      1.82409  1.90843e-06  -5.9041e-08     0.181178 
         -25      1.90793  1.92588e-06 -5.57732e-08     0.181177 
         -25       1.9937  1.94235e-06 -5.27403e-08     0.181177 
         -25      2.08131  1.95639e-06 -5.03268e-08     0.181177 
         -25      2.17081  1.96681e-06  -4.8798e-08     0.181176 
         -25      2.26223  1.97277e-06 -4.82854e-08     0.181176 
         -25       2.3555  1.97383e-06 -4.87678e-08     0.181175 
         -25      2.45065  1.97001e-06 -5.00598e-08     0.181175 
         -25      2.54769  1.96182e-06 -5.18097e-08     0.181174 