Variables = x, y, u, v, p

Zone, I=3600, F=POINT
         -50            0            0            0   0.00465119 
         -50     0.000942 -1.43189e-08  8.41957e-13   0.00465119 
         -50     0.003768 -5.49228e-08  3.90959e-12   0.00465119 
         -50     0.008478 -1.10632e-07  1.02834e-11   0.00465119 
         -50     0.015075 -1.57133e-07  2.14269e-11   0.00465119 
         -50     0.023553 -1.67492e-07  4.21089e-11   0.00465119 
         -50     0.033916 -1.38586e-07  8.64398e-11   0.00465119 
         -50     0.046163 -1.03684e-07  1.81005e-10   0.00465119 
         -50       0.0603 -9.10416e-08  3.56749e-10   0.00465119 
         -50     0.076315 -7.17608e-08  6.35004e-10   0.00465119 
         -50     0.094215 -7.09846e-08  1.04977e-09   0.00465119 
         -50     0.113999 -6.86184e-08  1.63487e-09   0.00465119 
         -50     0.135675 -7.04508e-08  2.42431e-09   0.00465119 
         -50     0.159228 -7.44894e-08  3.43304e-09   0.00465118 
         -50     0.184664 -8.17312e-08  4.65795e-09   0.00465118 
         -50     0.211985 -9.24281e-08  6.08201e-09   0.00465118 
         -50     0.241201 -1.04876e-07  7.66394e-09   0.00465118 
         -50      0.27229 -1.19763e-07  9.29674e-09   0.00465118 
         -50     0.305263 -1.35543e-07  1.10946e-08   0.00465117 
         -50     0.340135 -1.51847e-07  1.30904e-08   0.00465117 
         -50     0.376877 -1.67944e-07  1.50639e-08   0.00465117 
         -50     0.415503 -1.83246e-07   1.6781e-08   0.00465117 
         -50     0.456013 -1.97372e-07  1.82777e-08   0.00465116 
         -50     0.498424 -2.10183e-07  2.00731e-08   0.00465116 
         -50     0.542703 -2.21673e-07  2.30743e-08   0.00465115 
         -50     0.588866 -2.31683e-07  2.78229e-08   0.00465115 
         -50     0.636912 -2.40201e-07  3.45145e-08   0.00465114 
         -50     0.686864 -2.46814e-07   4.0715e-08   0.00465114 
         -50     0.738679 -2.51121e-07  4.50709e-08   0.00465113 
         -50     0.792379 -2.53493e-07  4.79022e-08   0.00465112 
         -50     0.847962 -2.54524e-07  4.97569e-08   0.00465111 
         -50     0.905453 -2.54975e-07  5.13019e-08   0.00465111 
         -50     0.964806 -2.55692e-07  5.31762e-08    0.0046511 
         -50      1.02604 -2.57498e-07   5.5836e-08   0.00465109 
         -50      1.08919 -2.61075e-07  5.94078e-08   0.00465108 
         -50      1.15419 -2.66833e-07  6.35849e-08   0.00465106 
         -50      1.22108 -2.74812e-07  6.76398e-08   0.00465105 
         -50      1.28985 -2.84607e-07  7.05925e-08   0.00465104 
         -50      1.36054 -2.95385e-07  7.16456e-08   0.00465102 
         -50      1.43308 -3.05989e-07  7.09926e-08     0.004651 
         -50      1.50751 -3.15263e-07  7.10556e-08   0.00465099 
         -50      1.58382 -3.21616e-07  6.91237e-08   0.00465097 
         -50      1.66204 -3.23418e-07  6.99481e-08   0.00465095 
         -50      1.74212  -3.1966e-07  7.21235e-08   0.00465093 
         -50      1.82409 -3.10238e-07  7.43725e-08   0.00465091 
         -50      1.90793 -2.95862e-07  7.55863e-08   0.00465088 
         -50       1.9937 -2.77906e-07  7.48645e-08   0.00465086 
         -50      2.08131 -2.58264e-07  7.15531e-08   0.00465083 
         -50      2.17081 -2.39072e-07  6.52732e-08    0.0046508 
         -50      2.26223  -2.2248e-07  5.59396e-08   0.00465077 
         -50       2.3555 -2.10398e-07  4.37886e-08   0.00465074 
         -50      2.45065 -2.04174e-07  2.93551e-08   0.00465071 
         -50      2.54769 -2.04371e-07   1.3468e-08   0.00465067 
         -50      2.64665 -2.10559e-07 -2.79628e-09   0.00465063 
         -50      2.74746 -2.21184e-07 -1.81481e-08    0.0046506 
         -50      2.85014 -2.33594e-07  -3.1214e-08   0.00465055 
         -50      2.95472 -2.44223e-07 -4.06324e-08   0.00465051 
         -50      3.06122 -2.49027e-07 -4.52205e-08   0.00465046 
         -50      3.16956 -2.44232e-07 -4.41742e-08   0.00465042 
         -50      3.27979 -2.27497e-07 -3.73343e-08   0.00465037 
         -50       3.3919 -1.99549e-07 -2.54902e-08   0.00465031 
         -50      3.50594 -1.66436e-07 -1.07558e-08   0.00465026 
         -50      3.62181 -1.42578e-07  2.95257e-09    0.0046502 
         -50      3.73958  -1.5456e-07    9.416e-09   0.00465014 
         -50      3.85927 -1.58284e-07  7.10099e-09   0.00465008 
         -50       3.9808 -1.46859e-07  6.82577e-09   0.00465001 
         -50      4.10422 -1.35119e-07  2.20857e-08   0.00464994 
         -50      4.22952 -1.28727e-07  3.30979e-08   0.00464987 
         -50      4.35675 -1.27275e-07  4.00133e-08    0.0046498 
         -50      4.48582 -1.29848e-07  4.37437e-08   0.00464972 
         -50      4.61677 -1.35166e-07  4.53289e-08   0.00464964 
         -50      4.74961  -1.4174e-07  4.54322e-08   0.00464955 
         -50      4.88438 -1.48051e-07    4.409e-08   0.00464947 
         -50      5.02099 -1.52727e-07  4.07951e-08   0.00464937 
         -50      5.15948 -1.54758e-07   3.5018e-08   0.00464928 
         -50      5.29985 -1.53686e-07  2.73001e-08   0.00464918 
         -50      5.44217 -1.49808e-07  2.10558e-08   0.00464907 
         -50      5.58631 -1.43044e-07  9.54837e-09   0.00464897 
         -50      5.73233 -1.36661e-07  4.56195e-09   0.00464885 
         -50      5.88024  -1.3385e-07  1.23376e-09   0.00464874 
         -50       6.0301 -1.34628e-07 -2.84953e-09   0.00464862 
         -50      6.18178 -1.37264e-07 -7.80408e-09    0.0046485 
         -50      6.33534 -1.39578e-07  -1.2309e-08   0.00464837 
         -50      6.49085 -1.40026e-07 -1.44097e-08   0.00464824 
         -50      6.64818 -1.38471e-07 -1.22389e-08    0.0046481 
         -50      6.80739 -1.38973e-07 -9.88544e-09   0.00464796 
         -50      6.96849 -1.43827e-07 -1.17426e-08   0.00464781 
         -50      7.13154 -1.41058e-07  5.00293e-09   0.00464766 
         -50      7.29641 -1.48276e-07 -4.29082e-09   0.00464751 
         -50      7.46316 -1.47763e-07 -1.45319e-09   0.00464735 
         -50       7.6318 -1.43354e-07   2.5267e-09   0.00464718 
         -50      7.80239 -1.39194e-07  1.36319e-09   0.00464701 
         -50      7.97479 -1.37021e-07 -3.91933e-09   0.00464683 
         -50      8.14908 -1.36655e-07 -9.47642e-09   0.00464665 
         -50      8.32526 -1.36689e-07 -1.21211e-08   0.00464646 
         -50      8.50338 -1.35399e-07   -1.143e-08   0.00464627 
         -50      8.68333 -1.31912e-07 -1.00828e-08   0.00464607 
         -50      8.86515 -1.31603e-07 -1.22111e-08   0.00464586 
         -50      9.04894 -1.37457e-07 -1.80727e-08   0.00464565 
         -50      9.23453 -1.54354e-07 -5.47074e-09   0.00464543 
         -50      9.42201 -1.46339e-07 -9.09616e-09   0.00464521 
         -50      9.61137 -1.41211e-07 -8.17076e-09   0.00464498 
         -50      9.80269 -1.39679e-07 -6.92809e-09   0.00464474 
         -50      9.99583 -1.40565e-07  -8.2558e-09    0.0046445 
         -50      10.1908 -1.43119e-07 -1.20529e-08   0.00464425 
         -50      10.3877 -1.46726e-07 -1.67898e-08   0.00464399 
         -50      10.5866 -1.50719e-07 -2.07729e-08   0.00464373 
         -50      10.7873 -1.54289e-07 -2.30184e-08   0.00464346 
         -50      10.9898 -1.56569e-07 -2.36535e-08   0.00464319 
         -50      11.1943 -1.56886e-07 -2.36947e-08    0.0046429 
         -50      11.4007 -1.55219e-07 -2.41075e-08   0.00464261 
         -50      11.6089 -1.52924e-07 -2.39931e-08   0.00464231 
         -50       11.819 -1.53741e-07 -1.77591e-08   0.00464201 
         -50       12.031 -1.53151e-07 -1.50095e-08   0.00464169 
         -50      12.2449  -1.5232e-07 -2.00949e-08   0.00464137 
         -50      12.4606 -1.54769e-07 -2.28726e-08   0.00464104 
         -50      12.6782 -1.56339e-07 -2.28913e-08   0.00464071 
         -50      12.8978  -1.5201e-07  -1.9383e-08   0.00464036 
         -50      13.1192 -1.51098e-07 -1.65982e-08   0.00464001 
         -50      13.3425  -1.5112e-07  -1.7231e-08   0.00463965 
         -50      13.5677 -1.47633e-07 -1.73962e-08   0.00463929 
         -50      13.7948 -1.43651e-07 -1.58482e-08   0.00463891 
         -50      14.0237  -1.4086e-07 -1.30161e-08   0.00463852 
         -50      14.2546 -1.39832e-07 -1.01707e-08   0.00463813 
         -50      14.4873 -1.40311e-07 -8.70683e-09   0.00463773 
         -50      14.7219 -1.41534e-07 -9.56497e-09   0.00463732 
         -50      14.9584 -1.42619e-07 -1.28268e-08    0.0046369 
         -50      15.1968 -1.43008e-07 -1.75291e-08   0.00463647 
         -50      15.4371 -1.42984e-07  -2.1733e-08   0.00463604 
         -50      15.6792 -1.44252e-07 -2.28862e-08   0.00463559 
         -50      15.9232   -1.506e-07 -1.85534e-08   0.00463515 
         -50      16.1691 -1.50624e-07 -2.73133e-08   0.00463468 
         -50       16.417 -1.49028e-07 -3.54039e-08   0.00463421 
         -50      16.6666 -1.48824e-07 -4.00214e-08   0.00463372 
         -50      16.9182 -1.48127e-07 -4.19316e-08   0.00463323 
         -50      17.1716 -1.44401e-07 -3.98581e-08   0.00463274 
         -50       17.427 -1.35618e-07 -2.98699e-08   0.00463223 
         -50      17.6842 -1.37701e-07 -3.25861e-08   0.00463171 
         -50      17.9433  -1.4271e-07 -3.74607e-08   0.00463118 
         -50      18.2042 -1.43247e-07 -3.74372e-08   0.00463065 
         -50      18.4672 -1.40444e-07 -3.58152e-08    0.0046301 
         -50      18.7319 -1.36171e-07 -3.44617e-08   0.00462955 
         -50      18.9985 -1.32546e-07 -3.37865e-08   0.00462898 
         -50       19.267  -1.3161e-07 -3.29475e-08   0.00462841 
         -50      19.5375 -1.35201e-07 -3.03044e-08   0.00462782 
         -50      19.8098 -1.43789e-07  -2.4601e-08   0.00462723 
         -50       20.084 -1.43765e-07 -2.48338e-08   0.00462663 
         -50      20.3601  -1.4526e-07 -2.84627e-08   0.00462602 
         -50       20.638 -1.46712e-07 -3.29164e-08    0.0046254 
         -50      20.9178 -1.47231e-07 -3.65959e-08   0.00462476 
         -50      21.1995 -1.46466e-07 -3.86858e-08   0.00462412 
         -50      21.4832 -1.44467e-07 -3.89774e-08   0.00462347 
         -50      21.7687 -1.41561e-07 -3.76995e-08   0.00462281 
         -50       22.056 -1.38232e-07 -3.53607e-08   0.00462214 
         -50      22.3452 -1.35015e-07 -3.26042e-08   0.00462146 
         -50      22.6365 -1.32403e-07  -3.0082e-08   0.00462076 
         -50      22.9295 -1.30778e-07 -2.83554e-08   0.00462006 
         -50      23.2243 -1.30344e-07 -2.78115e-08   0.00461935 
         -50      23.5211 -1.31109e-07 -2.86218e-08   0.00461863 
         -50      23.8199 -1.32878e-07 -3.07314e-08    0.0046179 
         -50      24.1204 -1.35276e-07 -3.38854e-08   0.00461716 
         -50      24.4228  -1.3782e-07 -3.77115e-08   0.00461642 
         -50      24.7272 -1.40023e-07 -4.18473e-08   0.00461566 
         -50      25.0334 -1.41537e-07 -4.61212e-08   0.00461489 
         -50      25.3415 -1.42358e-07 -5.08155e-08   0.00461412 
         -50      25.6514 -1.39585e-07 -5.58927e-08   0.00461333 
         -50      25.9634 -1.30678e-07 -4.36794e-08   0.00461253 
         -50      26.2771 -1.38426e-07 -5.11727e-08   0.00461172 
         -50      26.5927 -1.32903e-07 -6.09901e-08    0.0046109 
         -50      26.9102 -1.25089e-07 -6.91341e-08   0.00461007 
         -50      27.2297 -1.21299e-07 -7.18274e-08   0.00460923 
         -50       27.551  -1.1975e-07 -7.19528e-08   0.00460838 
         -50      27.8741 -1.19483e-07 -7.10177e-08   0.00460753 
         -50      28.1991 -1.20243e-07 -6.95968e-08   0.00460666 
         -50      28.5262 -1.21697e-07 -6.81843e-08   0.00460579 
         -50       28.855 -1.23479e-07 -6.71674e-08   0.00460491 
         -50      29.1856 -1.25246e-07 -6.68026e-08   0.00460402 
         -50      29.5183 -1.26705e-07 -6.72055e-08   0.00460311 
         -50      29.8528 -1.27648e-07 -6.83464e-08    0.0046022 
         -50      30.1891 -1.27973e-07 -7.00595e-08   0.00460128 
         -50      30.5273 -1.27686e-07 -7.20627e-08   0.00460035 
         -50      30.8676 -1.26899e-07 -7.39909e-08   0.00459942 
         -50      31.2096 -1.25809e-07 -7.54422e-08   0.00459847 
         -50      31.5534  -1.2466e-07 -7.60463e-08   0.00459751 
         -50      31.8992 -1.23689e-07  -7.5544e-08   0.00459655 
         -50      32.2469 -1.23055e-07  -7.3889e-08   0.00459557 
         -50      32.5965 -1.22736e-07  -7.1374e-08   0.00459459 
         -50      32.9479 -1.22414e-07 -6.87731e-08    0.0045936 
         -50      33.3012 -1.21328e-07  -6.7515e-08    0.0045926 
         -50      33.6565 -1.18098e-07 -6.98827e-08    0.0045916 
         -50      34.0135 -1.10521e-07 -7.92365e-08   0.00459058 
         -50      34.3725 -1.07493e-07 -6.81201e-08   0.00458956 
         -50      34.7334 -1.07134e-07 -6.07129e-08   0.00458853 
         -50      35.0962 -1.06589e-07 -6.64075e-08   0.00458749 
         -50      35.4608 -1.07396e-07 -6.96175e-08   0.00458644 
         -50      35.8272 -1.08939e-07 -6.73561e-08   0.00458538 
         -50      36.1957 -1.10118e-07 -6.63277e-08   0.00458432 
         -50       36.566 -1.10754e-07 -6.61524e-08   0.00458325 
         -50      36.9381 -1.10952e-07 -6.63506e-08   0.00458218 
         -50      37.3121 -1.10953e-07 -6.64542e-08   0.00458109 
         -50      37.6882 -1.11018e-07 -6.60943e-08      0.00458 
         -50       38.066 -1.11338e-07 -6.50669e-08    0.0045789 
         -50      38.4456 -1.11961e-07 -6.33697e-08    0.0045778 
         -50      38.8272 -1.12769e-07 -6.12108e-08   0.00457668 
         -50      39.2108 -1.13475e-07 -5.89815e-08   0.00457556 
         -50      39.5961 -1.13667e-07 -5.71987e-08   0.00457444 
         -50      39.9833 -1.12896e-07 -5.63957e-08    0.0045733 
         -50      40.3724 -1.10812e-07 -5.69797e-08   0.00457217 
         -50      40.7635 -1.07346e-07 -5.90358e-08   0.00457102 
         -50      41.1564 -1.02964e-07 -6.20759e-08   0.00456987 
         -50      41.5511 -9.89633e-08 -6.47384e-08   0.00456871 
         -50      41.9479 -9.78556e-08  -6.4418e-08   0.00456755 
         -50      42.3464 -1.02271e-07 -5.89647e-08   0.00456638 
         -50      42.7468 -9.69241e-08 -6.89074e-08   0.00456521 
         -50      43.1491  -9.4172e-08 -7.49943e-08   0.00456403 
         -50      43.5534 -9.25178e-08 -7.87487e-08   0.00456284 
         -50      43.9595 -9.12046e-08 -8.09534e-08   0.00456165 
         -50      44.3674 -9.01062e-08 -8.18513e-08   0.00456045 
         -50      44.7772 -8.96252e-08 -8.13241e-08   0.00455925 
         -50      45.1891 -9.05899e-08 -7.90703e-08   0.00455805 
         -50      45.6027 -9.41508e-08 -7.47753e-08   0.00455684 
         -50      46.0181 -9.59041e-08 -7.40444e-08   0.00455563 
         -50      46.4355 -9.15894e-08 -7.92459e-08   0.00455441 
         -50      46.8549 -8.90639e-08 -8.22272e-08   0.00455318 
         -50       47.276 -8.82502e-08 -8.37416e-08   0.00455195 
         -50       47.699 -8.88551e-08 -8.43297e-08   0.00455072 
         -50      48.1241 -9.04108e-08 -8.43411e-08   0.00454948 
         -50      48.5508 -9.23275e-08 -8.39712e-08   0.00454824 
         -50      48.9795 -9.39748e-08 -8.33028e-08     0.004547 
         -50        49.41 -9.47802e-08 -8.23572e-08   0.00454575 
         -50      49.8426 -9.43551e-08 -8.11532e-08    0.0045445 
         -50      50.2769 -9.26484e-08  -7.9778e-08   0.00454325 
         -50      50.7131 -9.01277e-08 -7.84638e-08   0.00454199 
         -50      51.1512 -8.79911e-08 -7.76797e-08   0.00454073 
         -50      51.5914 -8.84148e-08  -7.8233e-08   0.00453947 
         -50      52.0332 -8.85989e-08 -7.65062e-08    0.0045382 
         -50      52.4769 -8.61103e-08 -7.55054e-08   0.00453693 
         -50      52.9225 -8.29532e-08  -7.5438e-08   0.00453566 
         -50      53.3702 -8.00108e-08  -7.5464e-08   0.00453438 
         -50      53.8196 -7.77769e-08 -7.50901e-08   0.00453311 
         -50      54.2709 -7.64458e-08 -7.41136e-08   0.00453183 
         -50      54.7242 -7.60049e-08 -7.25617e-08   0.00453055 
         -50      55.1792 -7.63094e-08 -7.06323e-08   0.00452927 
         -50      55.6362 -7.71444e-08 -6.86249e-08   0.00452798 
         -50       56.095 -7.82742e-08 -6.68755e-08    0.0045267 
         -50      56.5558  -7.9475e-08 -6.56854e-08   0.00452541 
         -50      57.0184 -8.05485e-08 -6.52494e-08   0.00452412 
         -50      57.4829 -8.13209e-08 -6.55775e-08   0.00452283 
         -50      57.9492 -8.16165e-08 -6.64183e-08   0.00452154 
         -50      58.4176 -8.12108e-08 -6.71774e-08   0.00452025 
         -50      58.8877 -7.97604e-08 -6.68329e-08   0.00451895 
         -50      59.3597 -7.67045e-08 -6.38507e-08   0.00451766 
         -50      59.8336 -7.47562e-08 -6.17512e-08   0.00451636 
         -50      60.3096 -7.32149e-08 -6.18976e-08   0.00451507 
         -50      60.7872  -7.1725e-08 -6.28539e-08   0.00451377 
         -50      61.2667 -7.07419e-08 -6.40876e-08   0.00451248 
         -50      61.7484 -7.06466e-08 -6.51902e-08   0.00451118 
         -50      62.2317 -7.16603e-08 -6.59041e-08   0.00450988 
         -50      62.7168 -7.37485e-08 -6.61436e-08   0.00450858 
         -50      63.2039 -7.65115e-08 -6.59986e-08   0.00450729 
         -50      63.6931 -7.42896e-08 -6.65619e-08   0.00450599 
         -50      64.1839 -7.09443e-08 -6.64095e-08   0.00450469 
         -50      64.6766 -7.02599e-08 -6.50824e-08    0.0045034 
         -50      65.1712 -7.06471e-08 -6.32653e-08    0.0045021 
         -50      65.6679  -7.1071e-08 -6.14171e-08    0.0045008 
         -50      66.1663 -7.09567e-08 -5.98154e-08   0.00449951 
         -50      66.6665 -7.00981e-08 -5.85924e-08   0.00449821 
         -50      67.1687 -6.85666e-08 -5.77748e-08   0.00449692 
         -50      67.6729 -6.66232e-08 -5.73171e-08   0.00449563 
         -50      68.1788 -6.46375e-08 -5.71317e-08   0.00449434 
         -50      68.6866 -6.30027e-08 -5.71147e-08   0.00449305 
         -50      69.1963 -6.20625e-08  -5.7168e-08   0.00449176 
         -50      69.7081 -6.20398e-08 -5.72162e-08   0.00449047 
         -50      70.2215 -6.29709e-08  -5.7218e-08   0.00448919 
         -50      70.7368 -6.46457e-08 -5.71723e-08    0.0044879 
         -50      71.2543 -6.65572e-08 -5.71177e-08   0.00448662 
         -50      71.7734 -6.78526e-08 -5.71252e-08   0.00448534 
         -50      72.2943 -6.73023e-08 -5.72841e-08   0.00448405 
         -50      72.8172 -6.32686e-08 -5.76798e-08   0.00448278 
         -50      73.3422 -5.44769e-08 -5.81211e-08    0.0044815 
         -50      73.8688 -6.06805e-08 -5.61503e-08   0.00448023 
         -50      74.3973 -6.53574e-08 -5.79278e-08   0.00447895 
         -50      74.9277 -6.69684e-08 -5.97398e-08   0.00447768 
         -50      75.4602  -6.3975e-08 -5.72449e-08   0.00447641 
         -50      75.9944  -6.2415e-08 -5.82828e-08   0.00447515 
         -50      76.5305 -6.33716e-08 -6.11573e-08   0.00447388 
         -50      77.0684 -6.36446e-08 -6.17709e-08   0.00447262 
         -50      77.6084 -6.29904e-08 -6.12371e-08   0.00447136 
         -50      78.1502  -6.1302e-08 -6.03317e-08    0.0044701 
         -50      78.6937 -5.86021e-08 -5.95239e-08   0.00446884 
         -50      79.2394  -5.5035e-08 -5.90107e-08   0.00446759 
         -50      79.7868 -5.19141e-08  -5.8713e-08   0.00446634 
         -50      80.3361 -5.24786e-08 -5.80243e-08    0.0044651 
         -50      80.8872 -5.30171e-08 -5.69565e-08   0.00446386 
         -50      81.4404 -5.35707e-08 -5.56336e-08   0.00446262 
         -50      81.9953 -5.41747e-08 -5.41343e-08   0.00446139 
         -50      82.5521  -5.4851e-08 -5.25088e-08   0.00446016 
         -50      83.1108 -5.55999e-08  -5.0797e-08   0.00445894 
         -50      83.6715 -5.63971e-08 -4.90407e-08   0.00445772 
         -50       84.234 -5.71913e-08  -4.7294e-08    0.0044565 
         -50      84.7983 -5.79087e-08 -4.56237e-08   0.00445528 
         -50      85.3645 -5.84573e-08 -4.41104e-08   0.00445407 
         -50      85.9328 -5.87374e-08 -4.28413e-08   0.00445286 
         -50      86.5028  -5.8655e-08 -4.19003e-08   0.00445165 
         -50      87.0747 -5.81402e-08 -4.13468e-08   0.00445045 
         -50      87.6486 -5.71692e-08 -4.11934e-08   0.00444925 
         -50      88.2243 -5.57933e-08 -4.13745e-08   0.00444806 
         -50      88.8018  -5.4169e-08 -4.17074e-08   0.00444686 
         -50      89.3812 -5.25978e-08 -4.18468e-08   0.00444567 
         -50      89.9627  -5.1569e-08 -4.12299e-08   0.00444449 
         -50      90.5458 -5.18108e-08 -3.90151e-08   0.00444331 
         -50      91.1309 -5.37541e-08 -3.58158e-08   0.00444214 
         -50      91.7178 -5.35283e-08 -3.78747e-08   0.00444097 
         -50      92.3069 -5.22982e-08 -3.87543e-08   0.00443981 
         -50      92.8976 -5.06751e-08 -3.87463e-08   0.00443864 
         -50      93.4901 -4.90916e-08 -3.81426e-08   0.00443749 
         -50      94.0846 -4.78191e-08 -3.72123e-08   0.00443633 
         -50      94.6812 -4.69825e-08 -3.61815e-08   0.00443518 
         -50      95.2794 -4.65767e-08 -3.52143e-08   0.00443404 
         -50      95.8796 -4.64795e-08 -3.43907e-08    0.0044329 
         -50      96.4818 -4.64674e-08 -3.36881e-08   0.00443176 
         -50      97.0857  -4.6229e-08 -3.29627e-08   0.00443063 
         -50      97.6915 -4.53789e-08 -3.19292e-08   0.00442951 
         -50      98.2991 -4.49072e-08 -3.14958e-08    0.0044284 
         -50      98.9089 -4.68901e-08 -3.35043e-08   0.00442729 
         -50      99.5203 -4.79438e-08 -3.47029e-08   0.00442619 
         -50      100.134 -4.82535e-08 -3.52159e-08   0.00442509 
         -50      100.749  -4.8003e-08 -3.51723e-08   0.00442399 
         -50      101.366 -4.73689e-08 -3.47018e-08    0.0044229 
         -50      101.985 -4.65152e-08 -3.39312e-08   0.00442182 
         -50      102.606 -4.55867e-08 -3.29798e-08   0.00442074 
         -50      103.229 -4.47051e-08 -3.19556e-08   0.00441966 
         -50      103.854  -4.3965e-08 -3.09524e-08   0.00441859 
         -50       104.48 -4.34319e-08 -3.00479e-08   0.00441752 
         -50      105.108 -4.31383e-08 -2.92991e-08   0.00441645 
         -50      105.739 -4.30844e-08 -2.87418e-08   0.00441539 
         -50      106.371 -4.32378e-08 -2.83886e-08   0.00441433 
         -50      107.005  -4.3534e-08 -2.82287e-08   0.00441328 
         -50      107.641 -4.38799e-08  -2.8226e-08   0.00441223 
         -50      108.279  -4.4157e-08 -2.83204e-08   0.00441119 
         -50      108.919 -4.42262e-08 -2.84283e-08   0.00441016 
         -50       109.56 -4.39349e-08 -2.84439e-08   0.00440915 
         -50      110.204 -4.31249e-08 -2.82416e-08   0.00440814 
         -50      110.849 -4.16409e-08 -2.76784e-08   0.00440715 
         -50      111.497 -3.93449e-08 -2.65987e-08   0.00440619 
         -50      112.146 -3.92192e-08 -2.56716e-08   0.00440522 
         -50      112.797 -4.13684e-08 -2.53771e-08   0.00440421 
         -50       113.45 -4.26746e-08 -2.50382e-08   0.00440319 
         -50      114.105 -4.33469e-08 -2.46861e-08   0.00440216 
         -50      114.761  -4.3561e-08 -2.43356e-08   0.00440115 
         -50       115.42 -4.34646e-08 -2.39847e-08   0.00440014 
         -50      116.081 -4.31826e-08 -2.36166e-08   0.00439915 
         -50      116.743  -4.2821e-08 -2.32041e-08   0.00439818 
         -50      117.407 -4.24664e-08 -2.27146e-08   0.00439723 
         -50      118.073 -4.21846e-08 -2.21193e-08   0.00439631 
         -50      118.741 -4.20159e-08 -2.14044e-08   0.00439541 
         -50      119.411 -4.19667e-08 -2.05839e-08   0.00439453 
         -50      120.083 -4.19997e-08 -1.97159e-08   0.00439366 
         -50      120.757 -4.20194e-08 -1.89221e-08   0.00439282 
         -50      121.432 -4.18548e-08 -1.84106e-08   0.00439198 
         -50       122.11 -4.12389e-08 -1.84994e-08   0.00439117 
         -50      122.789 -3.97836e-08 -1.96467e-08   0.00439036 
         -50       123.47 -4.02966e-08 -1.72391e-08   0.00438957 
         -50      124.153 -4.05223e-08 -1.54521e-08   0.00438876 
         -50      124.838 -4.05281e-08 -1.42226e-08   0.00438793 
         -50      125.525 -4.03739e-08  -1.3465e-08    0.0043871 
         -50      126.214 -4.01044e-08 -1.30895e-08   0.00438626 
         -50      126.905 -3.97525e-08 -1.30054e-08    0.0043854 
         -50      127.597 -3.93422e-08 -1.31235e-08   0.00438454 
         -50      128.292 -3.88919e-08 -1.33607e-08   0.00438366 
         -50      128.988  -3.8419e-08 -1.36428e-08   0.00438278 
         -50      129.686 -3.79425e-08  -1.3909e-08   0.00438188 
         -50      130.386 -3.74888e-08 -1.41165e-08   0.00438097 
         -50      131.088 -3.70949e-08 -1.42445e-08   0.00438005 
         -50      131.792 -3.68152e-08 -1.42993e-08   0.00437912 
         -50      132.497 -3.67249e-08 -1.43201e-08   0.00437818 
         -50      133.205 -3.69268e-08 -1.43838e-08   0.00437722 
         -50      133.915 -3.75576e-08 -1.46114e-08   0.00437626 
         -50      134.626 -3.85487e-08 -1.41624e-08   0.00437531 
         -50      135.339 -3.97021e-08 -1.18516e-08   0.00437442 
         -50      136.054 -4.12263e-08 -1.02444e-08    0.0043735 
         -50      136.771 -4.26363e-08 -9.17781e-09   0.00437258 
         -50       137.49 -4.35748e-08 -8.50991e-09   0.00437166 
         -50      138.211  -4.3825e-08 -8.11561e-09   0.00437075 
         -50      138.934 -4.33089e-08 -7.88752e-09   0.00436987 
         -50      139.658  -4.2084e-08 -7.73481e-09   0.00436901 
         -50      140.385 -4.03264e-08 -7.58204e-09   0.00436816 
         -50      141.113  -3.8309e-08 -7.36904e-09   0.00436733 
         -50      141.843 -3.63676e-08 -7.05043e-09    0.0043665 
         -50      142.575 -3.48628e-08 -6.59617e-09   0.00436568 
         -50      143.309 -3.41218e-08 -5.99107e-09   0.00436484 
         -50      144.045 -3.43798e-08 -5.23576e-09   0.00436401 
         -50      144.783 -3.57053e-08 -4.34708e-09   0.00436317 
         -50      145.523  -3.7912e-08 -3.36063e-09   0.00436233 
         -50      146.264 -4.04642e-08 -2.33009e-09   0.00436152 
         -50      147.007 -4.23646e-08 -1.33039e-09   0.00436075 
         -50      147.753 -4.20298e-08 -4.59155e-10   0.00436006 
         -50        148.5 -3.71536e-08  1.59386e-10   0.00435949 
         -50      149.249 -2.45556e-08  3.73728e-10    0.0043591 
         -50          150 -2.22604e-22  5.09417e-24   0.00435896 
         -25            0           -0           -0   0.00448486 
         -25     0.000942 -1.55681e-08  3.71456e-13   0.00448486 
         -25     0.003768 -6.05193e-08  8.39638e-12   0.00448486 
         -25     0.008478 -1.26523e-07  4.35762e-11   0.00448486 
         -25     0.015075 -1.95411e-07  1.34985e-10   0.00448486 
         -25     0.023553 -2.46709e-07  3.17449e-10   0.00448486 
         -25     0.033916 -2.77059e-07  6.28173e-10   0.00448486 
         -25     0.046163 -3.09383e-07  1.10156e-09   0.00448486 
         -25       0.0603 -3.62593e-07   1.7612e-09   0.00448486 
         -25     0.076315  -4.1327e-07  2.60944e-09   0.00448486 
         -25     0.094215 -4.77563e-07  3.63471e-09   0.00448486 
         -25     0.113999 -5.38387e-07  4.81046e-09   0.00448486 
         -25     0.135675 -5.97878e-07   6.0913e-09   0.00448486 
         -25     0.159228 -6.52771e-07  7.42194e-09   0.00448486 
         -25     0.184664 -7.02573e-07  8.74278e-09   0.00448486 
         -25     0.211985 -7.46828e-07   9.9911e-09   0.00448485 
         -25     0.241201 -7.84245e-07   1.1111e-08   0.00448485 
         -25      0.27229 -8.15781e-07  1.20733e-08   0.00448485 
         -25     0.305263  -8.4119e-07  1.28035e-08   0.00448485 
         -25     0.340135 -8.61229e-07  1.32824e-08   0.00448485 
         -25     0.376877 -8.76469e-07  1.34834e-08   0.00448485 
         -25     0.415503 -8.87489e-07  1.33911e-08   0.00448485 
         -25     0.456013 -8.94706e-07   1.3038e-08   0.00448485 
         -25     0.498424 -8.98248e-07  1.25335e-08   0.00448485 
         -25     0.542703 -8.97894e-07  1.20579e-08   0.00448484 
         -25     0.588866 -8.93153e-07  1.17762e-08   0.00448484 
         -25     0.636912 -8.83426e-07  1.14538e-08   0.00448484 
         -25     0.686864 -8.67816e-07  1.11261e-08   0.00448484 
         -25     0.738679 -8.45929e-07  1.10342e-08   0.00448483 
         -25     0.792379 -8.17846e-07  1.12249e-08   0.00448483 
         -25     0.847962 -7.84093e-07   1.1696e-08   0.00448483 
         -25     0.905453 -7.45542e-07  1.24024e-08   0.00448483 
         -25     0.964806 -7.03369e-07  1.32678e-08   0.00448482 
         -25      1.02604 -6.58817e-07  1.42021e-08   0.00448482 
         -25      1.08919 -6.13066e-07  1.51213e-08   0.00448482 
         -25      1.15419 -5.67125e-07  1.59653e-08   0.00448481 
         -25      1.22108 -5.21586e-07  1.67172e-08   0.00448481 
         -25      1.28985 -4.76632e-07  1.74089e-08   0.00448481 
         -25      1.36054 -4.32085e-07   1.8112e-08    0.0044848 
         -25      1.43308  -3.8776e-07  1.89008e-08    0.0044848 
         -25      1.50751 -3.44014e-07  1.97554e-08   0.00448479 
         -25      1.58382 -2.99756e-07  1.98142e-08   0.00448479 
         -25      1.66204 -2.50742e-07  2.07678e-08   0.00448478 
         -25      1.74212 -2.02094e-07  2.18175e-08   0.00448478 
         -25      1.82409 -1.57365e-07  2.25005e-08   0.00448477 
         -25      1.90793 -1.18647e-07  2.26708e-08   0.00448477 
         -25       1.9937 -8.66528e-08   2.2463e-08   0.00448476 
         -25      2.08131 -6.09444e-08    2.224e-08   0.00448476 
         -25      2.17081 -4.01105e-08  2.25235e-08   0.00448475 
         -25      2.26223 -2.21298e-08  2.39124e-08   0.00448474 
         -25       2.3555 -4.74653e-09  2.69879e-08   0.00448473 
         -25      2.45065  1.41752e-08  3.22181e-08   0.00448473 
         -25      2.54769  3.62265e-08  3.98611e-08   0.00448472 