Variables = x, y, u, v, p

Zone, I=3600, F=POINT
         -50            0            0            0     0.227613 
         -50     0.000942  6.55331e-08  1.30595e-11     0.227613 
         -50     0.003768  2.06579e-07  4.47933e-11     0.227613 
         -50     0.008478  3.11083e-07   7.5262e-11     0.227613 
         -50     0.015075  3.20818e-07  7.72443e-11     0.227613 
         -50     0.023553  2.82281e-07  2.00716e-11     0.227613 
         -50     0.033916  2.71524e-07 -1.30518e-10     0.227613 
         -50     0.046163  2.76757e-07 -4.14164e-10     0.227613 
         -50       0.0603  2.40409e-07 -8.75076e-10     0.227613 
         -50     0.076315  2.40278e-07  -1.5662e-09     0.227613 
         -50     0.094215   2.1414e-07 -2.55329e-09     0.227613 
         -50     0.113999  2.04209e-07 -3.86023e-09     0.227613 
         -50     0.135675  1.96234e-07 -5.56072e-09     0.227613 
         -50     0.159228  1.95052e-07 -7.68797e-09     0.227613 
         -50     0.184664  1.97178e-07 -1.02889e-08     0.227613 
         -50     0.211985  2.00866e-07 -1.34694e-08     0.227613 
         -50     0.241201  2.08516e-07 -1.73232e-08     0.227613 
         -50      0.27229  2.15278e-07 -2.19801e-08     0.227613 
         -50     0.305263  2.22769e-07 -2.73174e-08     0.227612 
         -50     0.340135  2.29065e-07 -3.27923e-08     0.227612 
         -50     0.376877  2.33634e-07 -3.79668e-08     0.227612 
         -50     0.415503  2.36062e-07 -4.26272e-08     0.227612 
         -50     0.456013  2.36137e-07 -4.69411e-08     0.227612 
         -50     0.498424  2.33926e-07 -5.15758e-08     0.227612 
         -50     0.542703  2.29806e-07 -5.76542e-08     0.227612 
         -50     0.588866  2.24363e-07 -6.64325e-08     0.227612 
         -50     0.636912  2.17305e-07 -7.45603e-08     0.227611 
         -50     0.686864  2.09518e-07 -8.02246e-08     0.227611 
         -50     0.738679  2.02246e-07 -8.61791e-08     0.227611 
         -50     0.792379  1.96099e-07  -9.2731e-08     0.227611 
         -50     0.847962  1.91695e-07 -9.97877e-08      0.22761 
         -50     0.905453  1.89599e-07  -1.0697e-07      0.22761 
         -50     0.964806  1.90268e-07 -1.13751e-07     0.227609 
         -50      1.02604  1.93987e-07  -1.1966e-07     0.227609 
         -50      1.08919  2.00824e-07 -1.24452e-07     0.227608 
         -50      1.15419  2.10581e-07  -1.2824e-07     0.227608 
         -50      1.22108  2.22811e-07 -1.31537e-07     0.227607 
         -50      1.28985  2.36857e-07 -1.35083e-07     0.227607 
         -50      1.36054  2.51992e-07  -1.3938e-07     0.227606 
         -50      1.43308  2.67621e-07 -1.43766e-07     0.227605 
         -50      1.50751  2.83831e-07 -1.44927e-07     0.227605 
         -50      1.58382   3.0321e-07 -1.46201e-07     0.227604 
         -50      1.66204  3.14498e-07 -1.48189e-07     0.227603 
         -50      1.74212  3.22809e-07 -1.49841e-07     0.227602 
         -50      1.82409  3.31931e-07 -1.50422e-07     0.227601 
         -50      1.90793  3.44294e-07 -1.49518e-07       0.2276 
         -50       1.9937  3.61048e-07 -1.47009e-07     0.227599 
         -50      2.08131  3.82154e-07 -1.43052e-07     0.227597 
         -50      2.17081  4.06605e-07 -1.38026e-07     0.227596 
         -50      2.26223  4.32661e-07 -1.32473e-07     0.227594 
         -50       2.3555  4.58099e-07 -1.27039e-07     0.227593 
         -50      2.45065  4.80603e-07  -1.2238e-07     0.227591 
         -50      2.54769  4.98074e-07 -1.19088e-07      0.22759 
         -50      2.64665  5.08969e-07 -1.17607e-07     0.227588 
         -50      2.74746  5.12587e-07  -1.1816e-07     0.227586 
         -50      2.85014  5.09313e-07 -1.20692e-07     0.227584 
         -50      2.95472  5.00675e-07 -1.24845e-07     0.227582 
         -50      3.06122  4.89248e-07 -1.29977e-07     0.227579 
         -50      3.16956  4.78305e-07 -1.35225e-07     0.227577 
         -50      3.27979  4.71083e-07  -1.3967e-07     0.227574 
         -50       3.3919  4.69652e-07 -1.42584e-07     0.227572 
         -50      3.50594   4.7321e-07 -1.43803e-07     0.227569 
         -50      3.62181  4.75695e-07 -1.44258e-07     0.227566 
         -50      3.73958  4.62574e-07   -1.467e-07     0.227563 
         -50      3.85927  4.64396e-07 -1.42674e-07      0.22756 
         -50       3.9808  4.62651e-07  -1.3885e-07     0.227556 
         -50      4.10422   4.5314e-07 -1.31066e-07     0.227553 
         -50      4.22952  4.48775e-07 -1.26799e-07     0.227549 
         -50      4.35675  4.46621e-07 -1.24478e-07     0.227545 
         -50      4.48582  4.44134e-07 -1.22501e-07     0.227541 
         -50      4.61677  4.39765e-07 -1.19962e-07     0.227537 
         -50      4.74961  4.33322e-07 -1.17052e-07     0.227532 
         -50      4.88438  4.25966e-07 -1.14983e-07     0.227528 
         -50      5.02099  4.19735e-07 -1.15309e-07     0.227523 
         -50      5.15948  4.16417e-07 -1.18419e-07     0.227518 
         -50      5.29985   4.1567e-07 -1.21042e-07     0.227513 
         -50      5.44217  4.12172e-07 -1.12506e-07     0.227508 
         -50      5.58631  4.10974e-07 -1.18547e-07     0.227502 
         -50      5.73233   4.1227e-07 -1.15996e-07     0.227496 
         -50      5.88024  4.12665e-07 -1.12952e-07      0.22749 
         -50       6.0301  4.10852e-07 -1.12325e-07     0.227484 
         -50      6.18178  4.06953e-07 -1.13006e-07     0.227477 
         -50      6.33534  4.01996e-07 -1.12552e-07     0.227471 
         -50      6.49085  3.97296e-07 -1.09404e-07     0.227464 
         -50      6.64818   3.9372e-07 -1.04428e-07     0.227456 
         -50      6.80739  3.90393e-07 -9.90384e-08     0.227449 
         -50      6.96849  3.87673e-07 -8.96646e-08     0.227441 
         -50      7.13154  3.90207e-07 -9.66111e-08     0.227433 
         -50      7.29641  3.84392e-07 -9.29376e-08     0.227425 
         -50      7.46316  3.87224e-07 -9.03996e-08     0.227416 
         -50       7.6318  3.93294e-07 -8.76414e-08     0.227407 
         -50      7.80239  3.98789e-07 -8.31847e-08     0.227398 
         -50      7.97479  4.02513e-07  -7.8471e-08     0.227389 
         -50      8.14908  4.04643e-07 -7.52224e-08     0.227379 
         -50      8.32526  4.05753e-07 -7.36499e-08     0.227369 
         -50      8.50338    4.062e-07 -7.17482e-08     0.227358 
         -50      8.68333  4.06005e-07 -6.59836e-08     0.227348 
         -50      8.86515  4.00655e-07 -5.22542e-08     0.227337 
         -50      9.04894  3.94333e-07 -3.93097e-08     0.227325 
         -50      9.23453  3.98822e-07 -4.28127e-08     0.227314 
         -50      9.42201  3.97789e-07 -3.51627e-08     0.227302 
         -50      9.61137   3.8653e-07 -2.15146e-08     0.227289 
         -50      9.80269  3.82109e-07 -2.03811e-08     0.227277 
         -50      9.99583  3.82145e-07 -2.19877e-08     0.227264 
         -50      10.1908  3.84491e-07 -2.17341e-08      0.22725 
         -50      10.3877  3.87479e-07 -1.86168e-08     0.227236 
         -50      10.5866   3.9006e-07 -1.37502e-08     0.227222 
         -50      10.7873  3.91832e-07 -9.06381e-09     0.227208 
         -50      10.9898  3.92933e-07 -6.20552e-09     0.227193 
         -50      11.1943  3.93757e-07 -5.76793e-09     0.227177 
         -50      11.4007   3.9448e-07  -6.8884e-09     0.227162 
         -50      11.6089  3.94349e-07 -7.31904e-09     0.227145 
         -50       11.819  3.90703e-07 -4.07357e-09     0.227129 
         -50       12.031  3.87065e-07 -3.48505e-09     0.227112 
         -50      12.2449  3.88192e-07 -3.11306e-09     0.227095 
         -50      12.4606  3.87634e-07 -1.59179e-09     0.227077 
         -50      12.6782  3.84186e-07 -8.55286e-10     0.227059 
         -50      12.8978  3.79007e-07  2.79447e-09      0.22704 
         -50      13.1192  3.76774e-07  3.44824e-09     0.227021 
         -50      13.3425  3.78543e-07  4.38498e-09     0.227001 
         -50      13.5677  3.81142e-07   9.9986e-09     0.226981 
         -50      13.7948  3.82761e-07  1.71885e-08     0.226961 
         -50      14.0237  3.82607e-07  2.38049e-08      0.22694 
         -50      14.2546  3.80686e-07  2.87186e-08     0.226919 
         -50      14.4873  3.77548e-07  3.17395e-08     0.226897 
         -50      14.7219  3.74046e-07   3.3411e-08     0.226875 
         -50      14.9584  3.71074e-07  3.46345e-08     0.226852 
         -50      15.1968  3.69298e-07  3.61136e-08     0.226829 
         -50      15.4371  3.68893e-07   3.7578e-08     0.226805 
         -50      15.6792  3.69274e-07  3.67661e-08     0.226781 
         -50      15.9232  3.68834e-07  2.81434e-08     0.226756 
         -50      16.1691  3.68689e-07  3.25951e-08     0.226731 
         -50       16.417  3.73693e-07  3.95255e-08     0.226705 
         -50      16.6666  3.78511e-07  4.45734e-08     0.226679 
         -50      16.9182  3.80007e-07  4.88016e-08     0.226652 
         -50      17.1716  3.77649e-07  5.26702e-08     0.226625 
         -50       17.427  3.73248e-07  5.60054e-08     0.226597 
         -50      17.6842  3.72974e-07  6.01147e-08     0.226569 
         -50      17.9433  3.67847e-07  6.50214e-08     0.226541 
         -50      18.2042  3.58873e-07  6.96583e-08     0.226511 
         -50      18.4672   3.4998e-07  7.38783e-08     0.226481 
         -50      18.7319  3.44251e-07  7.73867e-08     0.226451 
         -50      18.9985  3.43489e-07  7.96418e-08      0.22642 
         -50       19.267  3.47862e-07  8.02503e-08     0.226389 
         -50      19.5375  3.55572e-07  7.99631e-08     0.226357 
         -50      19.8098  3.61109e-07  8.18295e-08     0.226325 
         -50       20.084  3.52714e-07  8.14975e-08     0.226292 
         -50      20.3601  3.49647e-07   8.2016e-08     0.226258 
         -50       20.638  3.49144e-07  8.36907e-08     0.226224 
         -50      20.9178  3.49356e-07  8.65132e-08      0.22619 
         -50      21.1995  3.49192e-07  9.02565e-08     0.226155 
         -50      21.4832  3.48154e-07  9.45662e-08     0.226119 
         -50      21.7687  3.46179e-07  9.90347e-08     0.226083 
         -50       22.056  3.43499e-07  1.03284e-07     0.226046 
         -50      22.3452  3.40504e-07  1.07015e-07     0.226009 
         -50      22.6365  3.37625e-07  1.10061e-07     0.225971 
         -50      22.9295  3.35242e-07  1.12402e-07     0.225933 
         -50      23.2243    3.336e-07  1.14185e-07     0.225894 
         -50      23.5211  3.32768e-07  1.15701e-07     0.225854 
         -50      23.8199  3.32625e-07  1.17345e-07     0.225814 
         -50      24.1204  3.32872e-07  1.19542e-07     0.225774 
         -50      24.4228  3.33102e-07  1.22648e-07     0.225733 
         -50      24.7272  3.32902e-07  1.26807e-07     0.225691 
         -50      25.0334  3.32013e-07  1.31763e-07     0.225649 
         -50      25.3415  3.30548e-07  1.36645e-07     0.225606 
         -50      25.6514  3.24904e-07  1.38966e-07     0.225563 
         -50      25.9634  3.15025e-07  1.25205e-07     0.225519 
         -50      26.2771  3.18801e-07  1.27003e-07     0.225475 
         -50      26.5927  3.18249e-07  1.28919e-07      0.22543 
         -50      26.9102  3.18929e-07  1.30801e-07     0.225385 
         -50      27.2297  3.18865e-07  1.32719e-07     0.225339 
         -50       27.551  3.17983e-07  1.34026e-07     0.225292 
         -50      27.8741   3.1641e-07  1.34891e-07     0.225245 
         -50      28.1991   3.1426e-07  1.35613e-07     0.225198 
         -50      28.5262  3.11763e-07  1.36407e-07      0.22515 
         -50       28.855  3.09212e-07  1.37403e-07     0.225101 
         -50      29.1856  3.06893e-07  1.38644e-07     0.225052 
         -50      29.5183  3.05049e-07  1.40096e-07     0.225003 
         -50      29.8528  3.03838e-07   1.4165e-07     0.224953 
         -50      30.1891  3.03304e-07  1.43148e-07     0.224902 
         -50      30.5273  3.03362e-07  1.44399e-07     0.224851 
         -50      30.8676  3.03803e-07  1.45207e-07       0.2248 
         -50      31.2096    3.043e-07  1.45414e-07     0.224748 
         -50      31.5534  3.04448e-07  1.44937e-07     0.224695 
         -50      31.8992  3.03814e-07  1.43827e-07     0.224642 
         -50      32.2469  3.02008e-07  1.42329e-07     0.224589 
         -50      32.5965  2.98787e-07  1.40958e-07     0.224535 
         -50      32.9479  2.94174e-07  1.40578e-07      0.22448 
         -50      33.3012  2.88609e-07  1.42508e-07     0.224426 
         -50      33.6565  2.83135e-07  1.48623e-07      0.22437 
         -50      34.0135  2.79619e-07  1.61479e-07     0.224315 
         -50      34.3725  2.82901e-07   1.5647e-07     0.224258 
         -50      34.7334  2.80828e-07  1.52099e-07     0.224202 
         -50      35.0962  2.74903e-07  1.53552e-07     0.224145 
         -50      35.4608  2.69856e-07  1.54634e-07     0.224087 
         -50      35.8272  2.67607e-07  1.55474e-07     0.224029 
         -50      36.1957  2.67102e-07  1.56531e-07     0.223971 
         -50       36.566  2.67709e-07  1.57344e-07     0.223912 
         -50      36.9381  2.68812e-07  1.57622e-07     0.223853 
         -50      37.3121  2.69854e-07  1.57234e-07     0.223793 
         -50      37.6882  2.70372e-07   1.5618e-07     0.223733 
         -50       38.066  2.70025e-07   1.5457e-07     0.223673 
         -50      38.4456  2.68616e-07  1.52599e-07     0.223612 
         -50      38.8272  2.66102e-07  1.50517e-07     0.223551 
         -50      39.2108  2.62597e-07   1.4859e-07      0.22349 
         -50      39.5961  2.58368e-07  1.47075e-07     0.223428 
         -50      39.9833  2.53808e-07  1.46166e-07     0.223366 
         -50      40.3724  2.49404e-07  1.45959e-07     0.223303 
         -50      40.7635  2.45692e-07  1.46401e-07      0.22324 
         -50      41.1564  2.43193e-07  1.47236e-07     0.223177 
         -50      41.5511  2.42328e-07  1.47947e-07     0.223113 
         -50      41.9479  2.43328e-07  1.47698e-07      0.22305 
         -50      42.3464   2.4554e-07  1.45894e-07     0.222985 
         -50      42.7468  2.42965e-07  1.48251e-07     0.222921 
         -50      43.1491  2.41408e-07  1.49531e-07     0.222856 
         -50      43.5534  2.40447e-07  1.50818e-07     0.222791 
         -50      43.9595  2.39619e-07  1.52276e-07     0.222726 
         -50      44.3674  2.38371e-07  1.53363e-07      0.22266 
         -50      44.7772  2.36032e-07  1.53039e-07     0.222594 
         -50      45.1891  2.31797e-07  1.49977e-07     0.222528 
         -50      45.6027  2.24751e-07  1.42774e-07     0.222462 
         -50      46.0181  2.19128e-07  1.39533e-07     0.222395 
         -50      46.4355  2.20516e-07  1.46513e-07     0.222329 
         -50      46.8549  2.21979e-07  1.50621e-07     0.222261 
         -50       47.276  2.23034e-07  1.52232e-07     0.222194 
         -50       47.699   2.2344e-07   1.5193e-07     0.222127 
         -50      48.1241  2.23146e-07  1.50411e-07     0.222059 
         -50      48.5508  2.22238e-07  1.48394e-07     0.221991 
         -50      48.9795  2.20885e-07  1.46521e-07     0.221923 
         -50        49.41  2.19279e-07  1.45278e-07     0.221855 
         -50      49.8426  2.17573e-07  1.44908e-07     0.221786 
         -50      50.2769  2.15822e-07  1.45335e-07     0.221718 
         -50      50.7131  2.13912e-07  1.46084e-07     0.221649 
         -50      51.1512  2.11491e-07  1.46223e-07      0.22158 
         -50      51.5914  2.07899e-07  1.44293e-07     0.221511 
         -50      52.0332  2.11241e-07  1.44134e-07     0.221442 
         -50      52.4769  2.11348e-07   1.4461e-07     0.221372 
         -50      52.9225  2.07965e-07  1.44458e-07     0.221303 
         -50      53.3702  2.03315e-07  1.43764e-07     0.221233 
         -50      53.8196  1.98808e-07  1.42675e-07     0.221164 
         -50      54.2709  1.95204e-07  1.41374e-07     0.221094 
         -50      54.7242  1.92776e-07  1.40044e-07     0.221024 
         -50      55.1792  1.91459e-07  1.38848e-07     0.220954 
         -50      55.6362  1.90979e-07  1.37909e-07     0.220885 
         -50       56.095  1.90977e-07  1.37305e-07     0.220815 
         -50      56.5558  1.91099e-07  1.37058e-07     0.220744 
         -50      57.0184  1.91085e-07  1.37149e-07     0.220674 
         -50      57.4829  1.90818e-07  1.37524e-07     0.220604 
         -50      57.9492  1.90365e-07  1.38123e-07     0.220534 
         -50      58.4176  1.89975e-07  1.38914e-07     0.220464 
         -50      58.8877  1.90065e-07  1.39938e-07     0.220394 
         -50      59.3597   1.9116e-07  1.41366e-07     0.220324 
         -50      59.8336  1.88516e-07  1.38336e-07     0.220253 
         -50      60.3096  1.85516e-07  1.35452e-07     0.220183 
         -50      60.7872  1.82899e-07  1.33728e-07     0.220113 
         -50      61.2667  1.80134e-07  1.32686e-07     0.220043 
         -50      61.7484  1.77155e-07  1.32002e-07     0.219973 
         -50      62.2317  1.74494e-07  1.31373e-07     0.219903 
         -50      62.7168  1.73406e-07  1.30373e-07     0.219833 
         -50      63.2039  1.75999e-07   1.2826e-07     0.219763 
         -50      63.6931  1.73703e-07  1.28262e-07     0.219693 
         -50      64.1839    1.681e-07  1.30125e-07     0.219623 
         -50      64.6766    1.669e-07  1.30544e-07     0.219553 
         -50      65.1712   1.6788e-07  1.30024e-07     0.219484 
         -50      65.6679  1.69505e-07  1.28992e-07     0.219414 
         -50      66.1663  1.70814e-07  1.27784e-07     0.219345 
         -50      66.6665  1.71308e-07  1.26632e-07     0.219275 
         -50      67.1687  1.70842e-07  1.25668e-07     0.219206 
         -50      67.6729  1.69523e-07  1.24927e-07     0.219137 
         -50      68.1788   1.6762e-07  1.24361e-07     0.219068 
         -50      68.6866  1.65478e-07   1.2386e-07     0.218999 
         -50      69.1963  1.63439e-07  1.23286e-07      0.21893 
         -50      69.7081   1.6178e-07  1.22507e-07     0.218862 
         -50      70.2215   1.6066e-07  1.21454e-07     0.218793 
         -50      70.7368   1.6007e-07  1.20177e-07     0.218725 
         -50      71.2543  1.59814e-07   1.1892e-07     0.218657 
         -50      71.7734  1.59485e-07  1.18206e-07     0.218589 
         -50      72.2943  1.58473e-07  1.18933e-07     0.218521 
         -50      72.8172  1.55981e-07  1.22487e-07     0.218454 
         -50      73.3422  1.51335e-07  1.30237e-07     0.218386 
         -50      73.8688  1.52908e-07  1.26836e-07     0.218319 
         -50      74.3973  1.54982e-07  1.24776e-07     0.218252 
         -50      74.9277  1.55629e-07  1.22714e-07     0.218186 
         -50      75.4602  1.53985e-07  1.17126e-07     0.218119 
         -50      75.9944  1.52172e-07  1.13919e-07     0.218053 
         -50      76.5305  1.50598e-07  1.13818e-07     0.217987 
         -50      77.0684    1.487e-07  1.12953e-07     0.217921 
         -50      77.6084  1.46658e-07  1.11695e-07     0.217856 
         -50      78.1502  1.44685e-07  1.10322e-07     0.217791 
         -50      78.6937  1.43052e-07  1.08998e-07     0.217726 
         -50      79.2394  1.42133e-07  1.07766e-07     0.217661 
         -50      79.7868  1.41414e-07   1.0692e-07     0.217597 
         -50      80.3361  1.37709e-07   1.0729e-07     0.217532 
         -50      80.8872  1.34378e-07  1.07424e-07     0.217469 
         -50      81.4404  1.31595e-07  1.07349e-07     0.217405 
         -50      81.9953   1.2953e-07  1.07049e-07     0.217342 
         -50      82.5521  1.28306e-07  1.06488e-07     0.217279 
         -50      83.1108  1.27972e-07  1.05641e-07     0.217216 
         -50      83.6715  1.28486e-07  1.04503e-07     0.217154 
         -50       84.234    1.297e-07   1.0311e-07     0.217092 
         -50      84.7983  1.31369e-07  1.01534e-07      0.21703 
         -50      85.3645  1.33162e-07  9.98864e-08     0.216969 
         -50      85.9328  1.34695e-07  9.83053e-08     0.216908 
         -50      86.5028  1.35575e-07  9.69394e-08     0.216848 
         -50      87.0747  1.35456e-07  9.59168e-08     0.216787 
         -50      87.6486   1.3412e-07  9.53107e-08     0.216727 
         -50      88.2243  1.31568e-07  9.50924e-08     0.216668 
         -50      88.8018  1.28132e-07  9.50727e-08     0.216609 
         -50      89.3812  1.24606e-07  9.48346e-08      0.21655 
         -50      89.9627  1.22399e-07  9.36512e-08     0.216492 
         -50      90.5458  1.23713e-07  9.03951e-08     0.216434 
         -50      91.1309  1.28339e-07  8.58285e-08     0.216376 
         -50      91.7178  1.24525e-07  8.78075e-08     0.216319 
         -50      92.3069  1.23156e-07  8.79125e-08     0.216262 
         -50      92.8976  1.23063e-07  8.69309e-08     0.216206 
         -50      93.4901  1.23412e-07  8.55071e-08      0.21615 
         -50      94.0846  1.23664e-07  8.41333e-08     0.216094 
         -50      94.6812  1.23539e-07  8.31391e-08     0.216039 
         -50      95.2794  1.22969e-07  8.26821e-08     0.215984 
         -50      95.8796  1.22061e-07  8.27333e-08      0.21593 
         -50      96.4818  1.21055e-07  8.30661e-08     0.215876 
         -50      97.0857  1.20287e-07  8.32411e-08     0.215823 
         -50      97.6915  1.20146e-07  8.25918e-08      0.21577 
         -50      98.2991  1.19416e-07  8.07113e-08     0.215718 
         -50      98.9089  1.15764e-07  7.92758e-08     0.215666 
         -50      99.5203  1.13071e-07  7.79594e-08     0.215614 
         -50      100.134  1.11144e-07   7.6831e-08     0.215563 
         -50      100.749  1.09807e-07  7.59131e-08     0.215513 
         -50      101.366  1.08904e-07   7.5188e-08     0.215463 
         -50      101.985  1.08296e-07  7.46067e-08     0.215413 
         -50      102.606  1.07864e-07  7.40963e-08     0.215364 
         -50      103.229   1.0751e-07  7.35692e-08     0.215316 
         -50      103.854  1.07157e-07  7.29328e-08     0.215268 
         -50       104.48  1.06751e-07  7.21001e-08      0.21522 
         -50      105.108  1.06259e-07  7.09988e-08     0.215173 
         -50      105.739  1.05675e-07  6.95835e-08     0.215127 
         -50      106.371  1.05014e-07  6.78466e-08     0.215081 
         -50      107.005  1.04319e-07  6.58331e-08     0.215036 
         -50      107.641  1.03657e-07  6.36499e-08     0.214991 
         -50      108.279  1.03122e-07  6.14807e-08     0.214947 
         -50      108.919  1.02834e-07  5.96034e-08     0.214903 
         -50       109.56  1.02941e-07  5.83996e-08      0.21486 
         -50      110.204  1.03617e-07  5.83741e-08     0.214817 
         -50      110.849  1.05065e-07  6.01707e-08     0.214775 
         -50      111.497  1.07514e-07  6.45867e-08     0.214734 
         -50      112.146  1.08053e-07   6.3082e-08     0.214693 
         -50      112.797  1.06261e-07  5.64762e-08     0.214653 
         -50       113.45  1.05146e-07  5.37969e-08     0.214613 
         -50      114.105  1.04468e-07  5.35607e-08     0.214574 
         -50      114.761  1.04058e-07  5.45629e-08     0.214535 
         -50       115.42  1.03808e-07  5.58694e-08     0.214497 
         -50      116.081  1.03661e-07  5.68012e-08      0.21446 
         -50      116.743  1.03594e-07  5.69181e-08     0.214423 
         -50      117.407  1.03606e-07  5.60063e-08     0.214387 
         -50      118.073  1.03707e-07  5.40599e-08     0.214352 
         -50      118.741  1.03894e-07  5.12682e-08     0.214317 
         -50      119.411  1.04141e-07  4.79946e-08     0.214284 
         -50      120.083  1.04376e-07  4.47613e-08      0.21425 
         -50      120.757  1.04464e-07  4.22307e-08     0.214217 
         -50      121.432  1.04186e-07  4.11903e-08     0.214185 
         -50       122.11  1.03214e-07  4.25269e-08     0.214154 
         -50      122.789  1.01093e-07  4.72121e-08     0.214123 
         -50       123.47  9.83964e-08   4.2961e-08     0.214093 
         -50      124.153  9.61863e-08  3.95659e-08     0.214063 
         -50      124.838  9.44895e-08  3.69619e-08     0.214035 
         -50      125.525  9.32631e-08  3.50492e-08     0.214007 
         -50      126.214   9.2412e-08  3.37314e-08     0.213979 
         -50      126.905  9.18084e-08  3.29161e-08     0.213953 
         -50      127.597  9.13102e-08  3.25085e-08     0.213927 
         -50      128.292  9.07824e-08    3.241e-08     0.213902 
         -50      128.988  9.01192e-08  3.25133e-08     0.213877 
         -50      129.686  8.92651e-08  3.26959e-08     0.213854 
         -50      130.386  8.82386e-08  3.28133e-08      0.21383 
         -50      131.088  8.71559e-08  3.26907e-08     0.213808 
         -50      131.792  8.62576e-08  3.21135e-08     0.213786 
         -50      132.497  8.59317e-08  3.08159e-08     0.213765 
         -50      133.205  8.67425e-08  2.84692e-08     0.213744 
         -50      133.915  8.94596e-08  2.46656e-08     0.213724 
         -50      134.626  9.34001e-08  2.07482e-08     0.213705 
         -50      135.339  9.53702e-08   2.0557e-08     0.213687 
         -50      136.054  9.81518e-08   2.0221e-08      0.21367 
         -50      136.771   1.0087e-07  1.97755e-08     0.213653 
         -50       137.49  1.02843e-07   1.9244e-08     0.213637 
         -50      138.211  1.03626e-07  1.86391e-08     0.213622 
         -50      138.934  1.03029e-07  1.79656e-08     0.213608 
         -50      139.658  1.01121e-07  1.72229e-08     0.213594 
         -50      140.385  9.82113e-08   1.6406e-08     0.213581 
         -50      141.113  9.48072e-08  1.55079e-08     0.213569 
         -50      141.843  9.15549e-08  1.45213e-08     0.213558 
         -50      142.575  8.91571e-08  1.34415e-08     0.213548 
         -50      143.309  8.82542e-08  1.22655e-08     0.213539 
         -50      144.045  8.92942e-08  1.09955e-08     0.213531 
         -50      144.783  9.23686e-08  9.63856e-09     0.213524 
         -50      145.523  9.70144e-08  8.21031e-09     0.213517 
         -50      146.264     1.02e-07  6.73253e-09     0.213511 
         -50      147.007  1.05065e-07  5.23597e-09     0.213507 
         -50      147.753  1.02638e-07  3.75991e-09     0.213503 
         -50        148.5  8.95137e-08  2.35479e-09       0.2135 
         -50      149.249   5.8502e-08  1.07884e-09     0.213498 
         -50          150  5.25581e-22  6.59328e-24     0.213497 
         -25            0           -0           -0      0.21873 
         -25     0.000942   5.1474e-08  3.95562e-12      0.21873 
         -25     0.003768  1.64834e-07  1.34227e-11      0.21873 
         -25     0.008478  2.57114e-07  2.21567e-11      0.21873 
         -25     0.015075   2.8472e-07  2.23316e-11      0.21873 
         -25     0.023553  2.80894e-07  6.73177e-12      0.21873 
         -25     0.033916   3.0045e-07 -3.03075e-11      0.21873 
         -25     0.046163  3.33352e-07  -9.3195e-11      0.21873 
         -25       0.0603  3.35867e-07 -1.85716e-10      0.21873 
         -25     0.076315  3.64071e-07 -3.12776e-10      0.21873 
         -25     0.094215  3.71049e-07 -4.79097e-10      0.21873 
         -25     0.113999   3.8709e-07 -6.79962e-10      0.21873 
         -25     0.135675  4.01172e-07 -9.08557e-10      0.21873 
         -25     0.159228  4.16634e-07 -1.15799e-09      0.21873 
         -25     0.184664  4.31011e-07 -1.41918e-09      0.21873 
         -25     0.211985  4.43363e-07 -1.67346e-09      0.21873 
         -25     0.241201  4.55985e-07 -1.90738e-09      0.21873 
         -25      0.27229  4.65939e-07 -2.13822e-09      0.21873 
         -25     0.305263  4.75108e-07 -2.28743e-09      0.21873 
         -25     0.340135  4.82814e-07 -2.40215e-09      0.21873 
         -25     0.376877  4.89223e-07 -2.54174e-09      0.21873 
         -25     0.415503  4.94364e-07 -2.75439e-09      0.21873 
         -25     0.456013  4.98186e-07 -3.06684e-09      0.21873 
         -25     0.498424  5.00636e-07 -3.47029e-09      0.21873 
         -25     0.542703  5.01697e-07 -3.89811e-09      0.21873 
         -25     0.588866  5.01271e-07  -4.1934e-09      0.21873 
         -25     0.636912   4.9913e-07 -3.75885e-09     0.218729 
         -25     0.686864   4.9538e-07 -3.36009e-09     0.218729 
         -25     0.738679  4.89915e-07 -3.33007e-09     0.218729 
         -25     0.792379  4.82754e-07 -3.56302e-09     0.218729 
         -25     0.847962  4.74005e-07 -3.98943e-09     0.218729 
         -25     0.905453  4.63845e-07 -4.56418e-09     0.218729 
         -25     0.964806  4.52529e-07 -5.24984e-09     0.218729 
         -25      1.02604  4.40346e-07 -6.00151e-09     0.218729 
         -25      1.08919    4.276e-07 -6.75395e-09     0.218728 
         -25      1.15419  4.14591e-07  -7.4195e-09     0.218728 
         -25      1.22108  4.01549e-07 -7.91042e-09     0.218728 
         -25      1.28985  3.88607e-07 -8.19258e-09     0.218728 
         -25      1.36054  3.75747e-07 -8.39252e-09     0.218727 
         -25      1.43308  3.62789e-07 -8.97755e-09     0.218727 
         -25      1.50751  3.49161e-07 -1.09857e-08     0.218727 
         -25      1.58382  3.28553e-07 -1.07506e-08     0.218727 
         -25      1.66204   3.1357e-07 -1.05336e-08     0.218726 
         -25      1.74212  2.99947e-07 -1.05592e-08     0.218726 
         -25      1.82409  2.84691e-07 -1.09056e-08     0.218725 
         -25      1.90793  2.66089e-07 -1.15165e-08     0.218725 
         -25       1.9937  2.43617e-07 -1.22206e-08     0.218725 
         -25      2.08131   2.1784e-07 -1.27567e-08     0.218724 
         -25      2.17081   1.9016e-07 -1.28093e-08     0.218724 
         -25      2.26223  1.62591e-07 -1.20457e-08     0.218723 
         -25       2.3555  1.37492e-07 -1.01613e-08     0.218722 
         -25      2.45065  1.17176e-07 -6.92291e-09     0.218722 
         -25      2.54769  1.03607e-07 -2.21205e-09     0.218721 