Variables = x, y, u, v, p

Zone, I=3600, F=POINT
         -50            0            0            0      1.84196 
         -50     0.000942  1.12916e-06  1.24427e-10      1.84196 
         -50     0.003768  3.51734e-06  4.55223e-10      1.84196 
         -50     0.008478  5.18316e-06  8.95401e-10      1.84196 
         -50     0.015075  5.19446e-06  1.35688e-09      1.84196 
         -50     0.023553  4.53617e-06  1.79464e-09      1.84196 
         -50     0.033916  4.60106e-06  2.17835e-09      1.84196 
         -50     0.046163  4.99993e-06  2.43753e-09      1.84196 
         -50       0.0603  4.57691e-06  2.48351e-09      1.84196 
         -50     0.076315  4.95228e-06  2.28406e-09      1.84196 
         -50     0.094215  4.72869e-06   1.7381e-09      1.84196 
         -50     0.113999  4.77401e-06  8.67997e-10      1.84196 
         -50     0.135675  4.77021e-06 -3.75901e-10      1.84196 
         -50     0.159228  4.81409e-06 -2.02098e-09      1.84196 
         -50     0.184664  4.85393e-06 -4.14073e-09      1.84196 
         -50     0.211985  4.87127e-06 -6.88208e-09      1.84195 
         -50     0.241201  4.92649e-06 -1.04444e-08      1.84195 
         -50      0.27229  4.94788e-06 -1.50584e-08      1.84195 
         -50     0.305263  4.97983e-06 -2.05168e-08      1.84195 
         -50     0.340135  5.00494e-06 -2.64707e-08      1.84195 
         -50     0.376877  5.02572e-06 -3.23566e-08      1.84195 
         -50     0.415503  5.04173e-06 -3.76638e-08      1.84195 
         -50     0.456013  5.05129e-06 -4.23022e-08      1.84195 
         -50     0.498424  5.05363e-06 -4.68565e-08      1.84195 
         -50     0.542703  5.05001e-06 -5.23918e-08      1.84195 
         -50     0.588866  5.04146e-06 -5.93526e-08      1.84195 
         -50     0.636912  5.02576e-06  -6.5741e-08      1.84194 
         -50     0.686864  5.00604e-06 -7.13339e-08      1.84194 
         -50     0.738679  4.98349e-06 -7.70176e-08      1.84194 
         -50     0.792379  4.95975e-06 -8.31165e-08      1.84194 
         -50     0.847962  4.93614e-06 -8.94831e-08      1.84194 
         -50     0.905453  4.91353e-06 -9.56539e-08      1.84193 
         -50     0.964806  4.89248e-06 -1.01043e-07      1.84193 
         -50      1.02604   4.8732e-06 -1.05187e-07      1.84193 
         -50      1.08919  4.85573e-06 -1.07955e-07      1.84192 
         -50      1.15419  4.84001e-06 -1.09672e-07      1.84192 
         -50      1.22108  4.82606e-06 -1.11093e-07      1.84191 
         -50      1.28985  4.81414e-06 -1.13056e-07      1.84191 
         -50      1.36054   4.8048e-06 -1.15697e-07       1.8419 
         -50      1.43308  4.79895e-06 -1.16998e-07       1.8419 
         -50      1.50751  4.79784e-06 -1.10487e-07      1.84189 
         -50      1.58382  4.80653e-06 -1.03216e-07      1.84188 
         -50      1.66204  4.81569e-06  -9.9966e-08      1.84188 
         -50      1.74212  4.82924e-06 -9.74259e-08      1.84187 
         -50      1.82409  4.84954e-06 -9.32386e-08      1.84186 
         -50      1.90793  4.87734e-06 -8.60059e-08      1.84185 
         -50       1.9937  4.91198e-06 -7.52404e-08      1.84184 
         -50      2.08131  4.95152e-06 -6.12953e-08      1.84183 
         -50      2.17081  4.99308e-06 -4.52055e-08      1.84182 
         -50      2.26223  5.03317e-06 -2.85217e-08      1.84181 
         -50       2.3555  5.06803e-06 -1.31202e-08      1.84179 
         -50      2.45065  5.09415e-06 -9.22718e-10      1.84178 
         -50      2.54769  5.10869e-06  6.33421e-09      1.84177 
         -50      2.64665  5.10987e-06   7.3603e-09      1.84175 
         -50      2.74746   5.0974e-06  1.54728e-09      1.84174 
         -50      2.85014  5.07267e-06 -1.08415e-08      1.84172 
         -50      2.95472  5.03886e-06   -2.857e-08       1.8417 
         -50      3.06122  5.00076e-06 -4.94502e-08      1.84168 
         -50      3.16956  4.96427e-06 -7.04881e-08      1.84166 
         -50      3.27979  4.93536e-06 -8.83393e-08      1.84164 
         -50       3.3919  4.91863e-06 -9.99667e-08      1.84162 
         -50      3.50594  4.91499e-06 -1.03702e-07       1.8416 
         -50      3.62181  4.91858e-06 -1.00745e-07      1.84157 
         -50      3.73958  4.91256e-06 -9.72292e-08      1.84155 
         -50      3.85927  4.87813e-06 -8.42611e-08      1.84152 
         -50       3.9808  4.85307e-06 -8.14639e-08      1.84149 
         -50      4.10422  4.83723e-06 -8.79644e-08      1.84147 
         -50      4.22952  4.82647e-06 -8.25758e-08      1.84144 
         -50      4.35675  4.81734e-06 -7.06832e-08       1.8414 
         -50      4.48582  4.80859e-06 -5.61943e-08      1.84137 
         -50      4.61677  4.80017e-06 -4.17208e-08      1.84134 
         -50      4.74961  4.79247e-06 -2.87977e-08       1.8413 
         -50      4.88438  4.78557e-06 -1.80441e-08      1.84126 
         -50      5.02099  4.77901e-06 -9.29152e-09      1.84122 
         -50      5.15948  4.77171e-06 -1.58471e-09      1.84118 
         -50      5.29985  4.76258e-06  6.89273e-09      1.84114 
         -50      5.44217  4.75178e-06  1.90795e-08       1.8411 
         -50      5.58631  4.74612e-06  2.62603e-08      1.84105 
         -50      5.73233  4.73932e-06  4.05131e-08        1.841 
         -50      5.88024  4.72823e-06  5.67325e-08      1.84095 
         -50       6.0301  4.71454e-06  7.17987e-08       1.8409 
         -50      6.18178  4.70203e-06  8.53593e-08      1.84085 
         -50      6.33534  4.69393e-06  9.92671e-08      1.84079 
         -50      6.49085  4.69047e-06  1.16055e-07      1.84074 
         -50      6.64818  4.68643e-06  1.36283e-07      1.84068 
         -50      6.80739  4.67472e-06  1.53263e-07      1.84062 
         -50      6.96849  4.67224e-06  1.72926e-07      1.84055 
         -50      7.13154  4.66254e-06  2.10013e-07      1.84049 
         -50      7.29641  4.65455e-06  2.15545e-07      1.84042 
         -50      7.46316  4.65474e-06  2.32945e-07      1.84035 
         -50       7.6318  4.65236e-06  2.60352e-07      1.84028 
         -50      7.80239  4.64449e-06  2.89756e-07       1.8402 
         -50      7.97479  4.63273e-06  3.15919e-07      1.84013 
         -50      8.14908  4.62066e-06  3.36755e-07      1.84005 
         -50      8.32526   4.6118e-06  3.53083e-07      1.83996 
         -50      8.50338  4.60799e-06  3.67825e-07      1.83988 
         -50      8.68333   4.6086e-06  3.84399e-07      1.83979 
         -50      8.86515  4.60687e-06  4.03804e-07       1.8397 
         -50      9.04894  4.59537e-06  4.26645e-07      1.83961 
         -50      9.23453  4.58666e-06  4.33597e-07      1.83951 
         -50      9.42201  4.58141e-06  4.65476e-07      1.83942 
         -50      9.61137   4.5723e-06  4.93426e-07      1.83931 
         -50      9.80269  4.56111e-06  5.08844e-07      1.83921 
         -50      9.99583  4.55125e-06  5.21638e-07       1.8391 
         -50      10.1908  4.54343e-06  5.35707e-07      1.83899 
         -50      10.3877  4.53692e-06  5.51304e-07      1.83888 
         -50      10.5866  4.53052e-06    5.671e-07      1.83877 
         -50      10.7873  4.52329e-06  5.81769e-07      1.83865 
         -50      10.9898  4.51502e-06  5.95039e-07      1.83852 
         -50      11.1943  4.50637e-06  6.07943e-07       1.8384 
         -50      11.4007  4.49848e-06  6.22209e-07      1.83827 
         -50      11.6089   4.4921e-06  6.38531e-07      1.83814 
         -50       11.819  4.48602e-06  6.53608e-07        1.838 
         -50       12.031  4.47779e-06  6.67719e-07      1.83787 
         -50      12.2449  4.46972e-06  6.86149e-07      1.83772 
         -50      12.4606  4.46341e-06   7.0447e-07      1.83758 
         -50      12.6782  4.45689e-06  7.21659e-07      1.83743 
         -50      12.8978  4.44226e-06  7.37285e-07      1.83728 
         -50      13.1192   4.4232e-06  7.60144e-07      1.83712 
         -50      13.3425  4.41797e-06  7.82626e-07      1.83696 
         -50      13.5677  4.41564e-06   8.0086e-07       1.8368 
         -50      13.7948  4.41139e-06  8.16654e-07      1.83663 
         -50      14.0237  4.40354e-06  8.31436e-07      1.83646 
         -50      14.2546  4.39238e-06  8.46375e-07      1.83629 
         -50      14.4873  4.37932e-06  8.62356e-07      1.83611 
         -50      14.7219  4.36608e-06   8.7992e-07      1.83593 
         -50      14.9584  4.35403e-06  8.99063e-07      1.83574 
         -50      15.1968  4.34388e-06  9.18994e-07      1.83555 
         -50      15.4371  4.33546e-06  9.37695e-07      1.83536 
         -50      15.6792  4.32801e-06  9.51344e-07      1.83516 
         -50      15.9232  4.32067e-06  9.53626e-07      1.83496 
         -50      16.1691  4.30501e-06  9.75511e-07      1.83476 
         -50       16.417  4.28965e-06  9.93773e-07      1.83455 
         -50      16.6666  4.27693e-06  1.00776e-06      1.83433 
         -50      16.9182   4.2659e-06  1.02224e-06      1.83411 
         -50      17.1716  4.25485e-06   1.0383e-06      1.83389 
         -50       17.427  4.24156e-06  1.05375e-06      1.83367 
         -50      17.6842   4.2287e-06  1.06576e-06      1.83344 
         -50      17.9433  4.21945e-06  1.08538e-06       1.8332 
         -50      18.2042  4.20817e-06  1.10813e-06      1.83296 
         -50      18.4672  4.19264e-06  1.12844e-06      1.83272 
         -50      18.7319  4.17348e-06  1.14329e-06      1.83247 
         -50      18.9985   4.1533e-06  1.15309e-06      1.83222 
         -50       19.267  4.13551e-06   1.1623e-06      1.83197 
         -50      19.5375  4.12265e-06   1.1797e-06      1.83171 
         -50      19.8098  4.11419e-06   1.2128e-06      1.83144 
         -50       20.084  4.10555e-06  1.20846e-06      1.83117 
         -50      20.3601  4.09591e-06  1.21585e-06       1.8309 
         -50       20.638  4.08466e-06  1.23012e-06      1.83062 
         -50      20.9178  4.07157e-06  1.24767e-06      1.83034 
         -50      21.1995  4.05673e-06  1.26594e-06      1.83006 
         -50      21.4832  4.04041e-06  1.28327e-06      1.82976 
         -50      21.7687  4.02309e-06  1.29878e-06      1.82947 
         -50       22.056  4.00526e-06  1.31221e-06      1.82917 
         -50      22.3452  3.98741e-06  1.32375e-06      1.82887 
         -50      22.6365  3.96997e-06  1.33393e-06      1.82856 
         -50      22.9295  3.95326e-06  1.34346e-06      1.82825 
         -50      23.2243  3.93743e-06  1.35314e-06      1.82793 
         -50      23.5211  3.92244e-06  1.36369e-06      1.82761 
         -50      23.8199  3.90807e-06   1.3757e-06      1.82728 
         -50      24.1204  3.89392e-06  1.38951e-06      1.82695 
         -50      24.4228  3.87942e-06  1.40518e-06      1.82662 
         -50      24.7272  3.86391e-06  1.42245e-06      1.82628 
         -50      25.0334  3.84671e-06  1.44067e-06      1.82593 
         -50      25.3415  3.82723e-06   1.4589e-06      1.82559 
         -50      25.6514  3.80619e-06  1.47024e-06      1.82523 
         -50      25.9634  3.78417e-06  1.46232e-06      1.82488 
         -50      26.2771  3.76797e-06  1.49092e-06      1.82452 
         -50      26.5927  3.73782e-06  1.50368e-06      1.82415 
         -50      26.9102  3.70716e-06  1.51439e-06      1.82378 
         -50      27.2297  3.68815e-06  1.52294e-06      1.82341 
         -50       27.551  3.67436e-06  1.53139e-06      1.82303 
         -50      27.8741  3.66243e-06  1.54029e-06      1.82265 
         -50      28.1991  3.65133e-06  1.54953e-06      1.82226 
         -50      28.5262  3.64014e-06  1.55892e-06      1.82187 
         -50       28.855  3.62807e-06  1.56825e-06      1.82148 
         -50      29.1856  3.61452e-06  1.57734e-06      1.82108 
         -50      29.5183  3.59907e-06  1.58609e-06      1.82068 
         -50      29.8528  3.58157e-06  1.59445e-06      1.82027 
         -50      30.1891  3.56206e-06  1.60253e-06      1.81986 
         -50      30.5273   3.5408e-06  1.61049e-06      1.81944 
         -50      30.8676  3.51824e-06  1.61858e-06      1.81902 
         -50      31.2096    3.495e-06  1.62707e-06       1.8186 
         -50      31.5534  3.47176e-06  1.63619e-06      1.81817 
         -50      31.8992   3.4492e-06  1.64605e-06      1.81774 
         -50      32.2469   3.4279e-06  1.65651e-06      1.81731 
         -50      32.5965  3.40822e-06  1.66703e-06      1.81687 
         -50      32.9479  3.39009e-06  1.67651e-06      1.81643 
         -50      33.3012  3.37286e-06  1.68305e-06      1.81598 
         -50      33.6565  3.35507e-06  1.68371e-06      1.81553 
         -50      34.0135  3.33421e-06  1.67423e-06      1.81508 
         -50      34.3725  3.31464e-06  1.68256e-06      1.81462 
         -50      34.7334  3.29921e-06  1.69626e-06      1.81416 
         -50      35.0962  3.28678e-06  1.70918e-06       1.8137 
         -50      35.4608  3.26844e-06  1.71929e-06      1.81323 
         -50      35.8272  3.24549e-06  1.72508e-06      1.81276 
         -50      36.1957  3.22313e-06  1.73022e-06      1.81229 
         -50       36.566  3.20116e-06  1.73491e-06      1.81181 
         -50      36.9381  3.17957e-06  1.73929e-06      1.81133 
         -50      37.3121  3.15846e-06  1.74341e-06      1.81084 
         -50      37.6882  3.13797e-06  1.74731e-06      1.81036 
         -50       38.066  3.11818e-06  1.75102e-06      1.80987 
         -50      38.4456  3.09908e-06  1.75453e-06      1.80937 
         -50      38.8272  3.08054e-06  1.75788e-06      1.80888 
         -50      39.2108  3.06228e-06  1.76109e-06      1.80838 
         -50      39.5961  3.04398e-06  1.76419e-06      1.80787 
         -50      39.9833  3.02521e-06  1.76719e-06      1.80737 
         -50      40.3724  3.00566e-06  1.77008e-06      1.80686 
         -50      40.7635  2.98516e-06  1.77275e-06      1.80635 
         -50      41.1564  2.96392e-06  1.77501e-06      1.80584 
         -50      41.5511  2.94272e-06  1.77648e-06      1.80532 
         -50      41.9479  2.92316e-06  1.77656e-06       1.8048 
         -50      42.3464  2.90767e-06  1.77402e-06      1.80428 
         -50      42.7468  2.89017e-06  1.77047e-06      1.80376 
         -50      43.1491  2.87043e-06  1.77075e-06      1.80323 
         -50      43.5534  2.84929e-06  1.77148e-06      1.80271 
         -50      43.9595  2.82774e-06  1.77071e-06      1.80218 
         -50      44.3674  2.80668e-06  1.76768e-06      1.80164 
         -50      44.7772  2.78672e-06  1.76266e-06      1.80111 
         -50      45.1891  2.76802e-06  1.75665e-06      1.80057 
         -50      45.6027  2.75008e-06  1.75115e-06      1.80004 
         -50      46.0181   2.7326e-06   1.7486e-06      1.79949 
         -50      46.4355  2.71538e-06  1.74904e-06      1.79895 
         -50      46.8549  2.69691e-06  1.75016e-06      1.79841 
         -50       47.276  2.67741e-06  1.75127e-06      1.79786 
         -50       47.699  2.65723e-06  1.75186e-06      1.79731 
         -50      48.1241  2.63678e-06  1.75155e-06      1.79677 
         -50      48.5508  2.61653e-06  1.75016e-06      1.79621 
         -50      48.9795  2.59692e-06  1.74767e-06      1.79566 
         -50        49.41  2.57828e-06  1.74422e-06      1.79511 
         -50      49.8426  2.56076e-06  1.74015e-06      1.79455 
         -50      50.2769  2.54435e-06  1.73596e-06        1.794 
         -50      50.7131   2.5287e-06  1.73229e-06      1.79344 
         -50      51.1512  2.51312e-06  1.72996e-06      1.79288 
         -50      51.5914  2.49647e-06  1.72987e-06      1.79232 
         -50      52.0332  2.47164e-06  1.72569e-06      1.79176 
         -50      52.4769  2.45006e-06  1.71995e-06       1.7912 
         -50      52.9225  2.43227e-06  1.71454e-06      1.79064 
         -50      53.3702  2.41643e-06  1.70952e-06      1.79007 
         -50      53.8196   2.4013e-06  1.70486e-06      1.78951 
         -50      54.2709  2.38607e-06   1.7005e-06      1.78894 
         -50      54.7242  2.37026e-06  1.69633e-06      1.78838 
         -50      55.1792  2.35373e-06   1.6922e-06      1.78781 
         -50      55.6362   2.3365e-06  1.68794e-06      1.78724 
         -50       56.095  2.31873e-06  1.68339e-06      1.78668 
         -50      56.5558  2.30069e-06  1.67837e-06      1.78611 
         -50      57.0184  2.28269e-06   1.6728e-06      1.78554 
         -50      57.4829  2.26508e-06  1.66662e-06      1.78497 
         -50      57.9492  2.24824e-06   1.6599e-06      1.78441 
         -50      58.4176  2.23255e-06  1.65285e-06      1.78384 
         -50      58.8877  2.21853e-06  1.64589e-06      1.78327 
         -50      59.3597  2.20677e-06  1.63964e-06       1.7827 
         -50      59.8336  2.19052e-06  1.63386e-06      1.78213 
         -50      60.3096  2.17228e-06  1.62739e-06      1.78156 
         -50      60.7872  2.15422e-06  1.61989e-06      1.78099 
         -50      61.2667  2.13667e-06  1.61142e-06      1.78043 
         -50      61.7484  2.11997e-06  1.60257e-06      1.77986 
         -50      62.2317   2.1044e-06   1.5945e-06      1.77929 
         -50      62.7168  2.08999e-06  1.58897e-06      1.77872 
         -50      63.2039  2.07648e-06  1.58836e-06      1.77816 
         -50      63.6931  2.06112e-06  1.58119e-06      1.77759 
         -50      64.1839  2.04485e-06  1.56741e-06      1.77703 
         -50      64.6766  2.02969e-06  1.55769e-06      1.77646 
         -50      65.1712  2.01533e-06  1.55044e-06       1.7759 
         -50      65.6679  2.00146e-06  1.54436e-06      1.77533 
         -50      66.1663   1.9878e-06   1.5385e-06      1.77477 
         -50      66.6665  1.97411e-06  1.53216e-06      1.77421 
         -50      67.1687  1.96024e-06  1.52498e-06      1.77365 
         -50      67.6729   1.9461e-06  1.51682e-06      1.77309 
         -50      68.1788  1.93172e-06  1.50776e-06      1.77253 
         -50      68.6866  1.91719e-06  1.49808e-06      1.77197 
         -50      69.1963  1.90268e-06  1.48815e-06      1.77142 
         -50      69.7081  1.88842e-06  1.47837e-06      1.77086 
         -50      70.2215  1.87466e-06  1.46913e-06      1.77031 
         -50      70.7368  1.86161e-06  1.46064e-06      1.76976 
         -50      71.2543  1.84944e-06  1.45286e-06      1.76921 
         -50      71.7734  1.83814e-06  1.44536e-06      1.76866 
         -50      72.2943  1.82752e-06  1.43716e-06      1.76811 
         -50      72.8172  1.81706e-06  1.42657e-06      1.76756 
         -50      73.3422   1.8056e-06  1.41149e-06      1.76702 
         -50      73.8688  1.78812e-06  1.40367e-06      1.76647 
         -50      74.3973  1.77066e-06  1.39544e-06      1.76593 
         -50      74.9277  1.75447e-06  1.38717e-06      1.76539 
         -50      75.4602  1.74227e-06  1.37909e-06      1.76486 
         -50      75.9944  1.73222e-06  1.37301e-06      1.76432 
         -50      76.5305  1.72145e-06  1.36638e-06      1.76379 
         -50      77.0684  1.71117e-06  1.35769e-06      1.76325 
         -50      77.6084  1.70094e-06  1.34704e-06      1.76272 
         -50      78.1502  1.69032e-06   1.3349e-06       1.7622 
         -50      78.6937  1.67887e-06  1.32199e-06      1.76167 
         -50      79.2394  1.66616e-06  1.30933e-06      1.76115 
         -50      79.7868  1.65342e-06  1.29796e-06      1.76063 
         -50      80.3361  1.64529e-06  1.28719e-06      1.76011 
         -50      80.8872  1.63637e-06  1.27682e-06      1.75959 
         -50      81.4404  1.62685e-06  1.26669e-06      1.75908 
         -50      81.9953   1.6169e-06  1.25669e-06      1.75857 
         -50      82.5521  1.60662e-06  1.24679e-06      1.75806 
         -50      83.1108  1.59609e-06  1.23695e-06      1.75755 
         -50      83.6715   1.5854e-06  1.22718e-06      1.75705 
         -50       84.234  1.57465e-06  1.21748e-06      1.75655 
         -50      84.7983  1.56393e-06  1.20783e-06      1.75605 
         -50      85.3645  1.55333e-06   1.1982e-06      1.75555 
         -50      85.9328  1.54297e-06  1.18854e-06      1.75506 
         -50      86.5028  1.53296e-06  1.17878e-06      1.75457 
         -50      87.0747  1.52336e-06  1.16884e-06      1.75409 
         -50      87.6486  1.51421e-06  1.15863e-06       1.7536 
         -50      88.2243  1.50548e-06  1.14812e-06      1.75312 
         -50      88.8018  1.49703e-06  1.13727e-06      1.75264 
         -50      89.3812  1.48857e-06  1.12615e-06      1.75217 
         -50      89.9627  1.47963e-06  1.11491e-06       1.7517 
         -50      90.5458  1.46948e-06  1.10388e-06      1.75123 
         -50      91.1309  1.45858e-06   1.0933e-06      1.75076 
         -50      91.7178  1.45175e-06  1.08206e-06       1.7503 
         -50      92.3069   1.4438e-06  1.07086e-06      1.74984 
         -50      92.8976  1.43526e-06  1.05972e-06      1.74939 
         -50      93.4901  1.42657e-06  1.04859e-06      1.74893 
         -50      94.0846  1.41807e-06  1.03742e-06      1.74849 
         -50      94.6812  1.40994e-06   1.0261e-06      1.74804 
         -50      95.2794  1.40226e-06  1.01455e-06       1.7476 
         -50      95.8796   1.3949e-06  1.00264e-06      1.74716 
         -50      96.4818  1.38759e-06  9.90229e-07      1.74673 
         -50      97.0857  1.37984e-06  9.77208e-07       1.7463 
         -50      97.6915  1.37096e-06  9.63434e-07      1.74587 
         -50      98.2991   1.3615e-06  9.50122e-07      1.74545 
         -50      98.9089  1.35505e-06  9.39446e-07      1.74503 
         -50      99.5203  1.34872e-06  9.28339e-07      1.74461 
         -50      100.134  1.34243e-06  9.16986e-07       1.7442 
         -50      100.749   1.3361e-06  9.05528e-07       1.7438 
         -50      101.366  1.32966e-06  8.94058e-07      1.74339 
         -50      101.985  1.32311e-06  8.82645e-07      1.74299 
         -50      102.606  1.31643e-06  8.71307e-07       1.7426 
         -50      103.229  1.30964e-06  8.60037e-07      1.74221 
         -50      103.854  1.30277e-06  8.48799e-07      1.74182 
         -50       104.48  1.29589e-06  8.37555e-07      1.74144 
         -50      105.108  1.28905e-06  8.26241e-07      1.74106 
         -50      105.739  1.28235e-06  8.14797e-07      1.74069 
         -50      106.371  1.27584e-06  8.03163e-07      1.74032 
         -50      107.005   1.2696e-06  7.91307e-07      1.73995 
         -50      107.641  1.26366e-06  7.79212e-07      1.73959 
         -50      108.279  1.25806e-06  7.66894e-07      1.73923 
         -50      108.919  1.25275e-06  7.54433e-07      1.73888 
         -50       109.56  1.24763e-06  7.41955e-07      1.73853 
         -50      110.204  1.24255e-06  7.29663e-07      1.73819 
         -50      110.849  1.23723e-06  7.17846e-07      1.73785 
         -50      111.497  1.23129e-06  7.06911e-07      1.73752 
         -50      112.146  1.22882e-06  6.95325e-07      1.73719 
         -50      112.797  1.22622e-06  6.82495e-07      1.73687 
         -50       113.45  1.22009e-06  6.70048e-07      1.73655 
         -50      114.105  1.21282e-06  6.57738e-07      1.73623 
         -50      114.761  1.20585e-06  6.45395e-07      1.73592 
         -50       115.42  1.19988e-06  6.32933e-07      1.73562 
         -50      116.081  1.19512e-06  6.20326e-07      1.73532 
         -50      116.743  1.19143e-06  6.07613e-07      1.73502 
         -50      117.407  1.18849e-06  5.94855e-07      1.73474 
         -50      118.073  1.18585e-06  5.82133e-07      1.73445 
         -50      118.741   1.1831e-06  5.69548e-07      1.73417 
         -50      119.411  1.17981e-06  5.57172e-07       1.7339 
         -50      120.083   1.1756e-06  5.45052e-07      1.73363 
         -50      120.757  1.17003e-06  5.33182e-07      1.73337 
         -50      121.432  1.16256e-06  5.21501e-07      1.73311 
         -50       122.11  1.15237e-06  5.09848e-07      1.73286 
         -50      122.789  1.13818e-06  4.97955e-07      1.73261 
         -50       123.47  1.15236e-06  4.84555e-07      1.73237 
         -50      124.153    1.158e-06  4.71369e-07      1.73213 
         -50      124.838  1.15721e-06  4.58369e-07       1.7319 
         -50      125.525  1.15188e-06  4.45537e-07      1.73168 
         -50      126.214  1.14357e-06  4.32853e-07      1.73146 
         -50      126.905  1.13356e-06  4.20314e-07      1.73125 
         -50      127.597  1.12286e-06  4.07904e-07      1.73104 
         -50      128.292  1.11227e-06  3.95605e-07      1.73084 
         -50      128.988   1.1024e-06  3.83405e-07      1.73064 
         -50      129.686  1.09373e-06  3.71268e-07      1.73045 
         -50      130.386  1.08662e-06  3.59147e-07      1.73027 
         -50      131.088  1.08136e-06  3.46965e-07      1.73009 
         -50      131.792  1.07822e-06  3.34633e-07      1.72992 
         -50      132.497  1.07745e-06  3.22007e-07      1.72975 
         -50      133.205  1.07937e-06  3.08904e-07      1.72959 
         -50      133.915  1.08437e-06  2.95077e-07      1.72943 
         -50      134.626  1.08873e-06  2.81587e-07      1.72928 
         -50      135.339  1.09754e-06  2.70663e-07      1.72914 
         -50      136.054  1.11871e-06   2.5912e-07      1.72901 
         -50      136.771  1.14169e-06   2.4703e-07      1.72888 
         -50       137.49  1.15818e-06  2.34479e-07      1.72875 
         -50      138.211  1.16266e-06  2.21535e-07      1.72863 
         -50      138.934  1.15268e-06  2.08271e-07      1.72852 
         -50      139.658  1.12887e-06  1.94777e-07      1.72842 
         -50      140.385  1.09477e-06  1.81127e-07      1.72832 
         -50      141.113  1.05633e-06  1.67404e-07      1.72823 
         -50      141.843  1.02119e-06  1.53678e-07      1.72815 
         -50      142.575  9.97653e-07  1.40029e-07      1.72807 
         -50      143.309   9.9333e-07  1.26507e-07        1.728 
         -50      144.045  1.01349e-06  1.13145e-07      1.72794 
         -50      144.783  1.05908e-06    9.994e-08      1.72788 
         -50      145.523  1.12434e-06  8.68631e-08      1.72783 
         -50      146.264  1.19414e-06  7.38159e-08      1.72779 
         -50      147.007  1.24088e-06  6.06368e-08      1.72776 
         -50      147.753  1.22094e-06  4.70742e-08      1.72773 
         -50        148.5  1.07086e-06  3.27898e-08      1.72771 
         -50      149.249  7.02918e-07  1.73065e-08      1.72769 
         -50          150  6.33605e-21  1.27479e-22      1.72769 
         -25            0           -0           -0      1.76994 
         -25     0.000942  8.28981e-07  4.60088e-11      1.76994 
         -25     0.003768  2.58462e-06  1.77506e-10      1.76994 
         -25     0.008478  3.81652e-06  3.85885e-10      1.76994 
         -25     0.015075  3.84106e-06   6.8293e-10      1.76994 
         -25     0.023553  3.37636e-06  1.11093e-09      1.76994 
         -25     0.033916  3.43868e-06  1.72867e-09      1.76994 
         -25     0.046163  3.74104e-06  2.58564e-09      1.76994 
         -25       0.0603  3.43596e-06  3.72503e-09      1.76994 
         -25     0.076315  3.70706e-06    5.204e-09      1.76994 
         -25     0.094215  3.53164e-06  7.04519e-09      1.76994 
         -25     0.113999  3.54451e-06  9.30114e-09      1.76994 
         -25     0.135675  3.51394e-06  1.19917e-08      1.76994 
         -25     0.159228  3.51224e-06  1.51325e-08      1.76994 
         -25     0.184664  3.50351e-06  1.87314e-08      1.76994 
         -25     0.211985  3.47644e-06  2.27922e-08      1.76994 
         -25     0.241201  3.47734e-06   2.7317e-08      1.76994 
         -25      0.27229  3.45585e-06  3.22956e-08      1.76994 
         -25     0.305263  3.44631e-06   3.7703e-08      1.76994 
         -25     0.340135  3.43753e-06  4.35151e-08      1.76994 
         -25     0.376877  3.43263e-06  4.95809e-08      1.76994 
         -25     0.415503  3.43215e-06  5.57109e-08      1.76994 
         -25     0.456013  3.43538e-06  6.17914e-08      1.76994 
         -25     0.498424  3.44196e-06  6.79006e-08      1.76994 
         -25     0.542703  3.45265e-06  7.43192e-08      1.76994 
         -25     0.588866  3.46765e-06  8.13443e-08      1.76994 
         -25     0.636912  3.48447e-06  8.92343e-08      1.76994 
         -25     0.686864   3.5045e-06  9.75322e-08      1.76994 
         -25     0.738679  3.52609e-06  1.05853e-07      1.76994 
         -25     0.792379  3.54808e-06  1.14161e-07      1.76994 
         -25     0.847962  3.56944e-06  1.22396e-07      1.76993 
         -25     0.905453  3.58931e-06  1.30495e-07      1.76993 
         -25     0.964806  3.60695e-06  1.38385e-07      1.76993 
         -25      1.02604  3.62185e-06  1.46009e-07      1.76993 
         -25      1.08919  3.63364e-06  1.53332e-07      1.76993 
         -25      1.15419  3.64207e-06  1.60327e-07      1.76993 
         -25      1.22108  3.64698e-06  1.66996e-07      1.76993 
         -25      1.28985  3.64827e-06  1.73333e-07      1.76992 
         -25      1.36054  3.64584e-06  1.79292e-07      1.76992 
         -25      1.43308  3.63956e-06  1.84705e-07      1.76992 
         -25      1.50751  3.62934e-06  1.89172e-07      1.76992 
         -25      1.58382   3.6191e-06  1.92284e-07      1.76992 
         -25      1.66204  3.60492e-06  1.95808e-07      1.76991 
         -25      1.74212  3.58894e-06  1.99205e-07      1.76991 
         -25      1.82409  3.57266e-06  2.02022e-07      1.76991 
         -25      1.90793  3.55702e-06  2.03895e-07       1.7699 
         -25       1.9937  3.54239e-06  2.04577e-07       1.7699 
         -25      2.08131  3.52874e-06  2.03945e-07      1.76989 
         -25      2.17081  3.51567e-06  2.02012e-07      1.76989 
         -25      2.26223   3.5026e-06  1.98933e-07      1.76989 
         -25       2.3555  3.48892e-06   1.9501e-07      1.76988 
         -25      2.45065  3.47414e-06  1.90675e-07      1.76988 
         -25      2.54769  3.45806e-06  1.86481e-07      1.76987 