Variables = x, y, u, v, p

Zone, I=3600, F=POINT
         -50            0            0            0      0.99785 
         -50     0.000942   1.5013e-07  4.42669e-11      0.99785 
         -50     0.003768  4.58771e-07   1.4382e-10      0.99785 
         -50     0.008478  6.49645e-07  2.22661e-10      0.99785 
         -50     0.015075  6.06746e-07  2.12691e-10      0.99785 
         -50     0.023553  4.91457e-07  8.63144e-11      0.99785 
         -50     0.033916   5.0761e-07 -1.58268e-10      0.99785 
         -50     0.046163  5.80521e-07 -5.34552e-10      0.99785 
         -50       0.0603  5.33985e-07 -1.06294e-09      0.99785 
         -50     0.076315  6.20008e-07 -1.74054e-09     0.997849 
         -50     0.094215  6.02393e-07 -2.61003e-09     0.997849 
         -50     0.113999  6.30121e-07 -3.57181e-09     0.997849 
         -50     0.135675  6.46395e-07 -4.56571e-09     0.997849 
         -50     0.159228  6.69813e-07 -5.49042e-09     0.997849 
         -50     0.184664  6.88901e-07 -6.24363e-09     0.997849 
         -50     0.211985  6.99546e-07 -6.73828e-09     0.997849 
         -50     0.241201  7.13888e-07 -7.01336e-09     0.997849 
         -50      0.27229   7.1713e-07  -7.2352e-09     0.997848 
         -50     0.305263  7.18895e-07 -7.50549e-09     0.997848 
         -50     0.340135  7.16312e-07 -8.41961e-09     0.997848 
         -50     0.376877  7.10764e-07 -1.00533e-08     0.997847 
         -50     0.415503  7.02855e-07 -1.21363e-08     0.997847 
         -50     0.456013  6.92847e-07 -1.43726e-08     0.997846 
         -50     0.498424  6.81166e-07 -1.66829e-08     0.997846 
         -50     0.542703  6.68664e-07 -1.90454e-08     0.997845 
         -50     0.588866  6.55962e-07  -2.0442e-08     0.997844 
         -50     0.636912  6.42805e-07 -1.95908e-08     0.997843 
         -50     0.686864  6.29874e-07 -1.89311e-08     0.997842 
         -50     0.738679  6.17578e-07 -1.77392e-08     0.997841 
         -50     0.792379  6.06421e-07 -1.59494e-08     0.997839 
         -50     0.847962  5.96589e-07 -1.36851e-08     0.997838 
         -50     0.905453  5.87971e-07 -1.12104e-08     0.997836 
         -50     0.964806  5.80244e-07 -8.86303e-09     0.997835 
         -50      1.02604  5.72946e-07 -6.95839e-09     0.997833 
         -50      1.08919   5.6561e-07 -5.69282e-09     0.997831 
         -50      1.15419  5.57901e-07 -5.05041e-09     0.997828 
         -50      1.22108  5.49718e-07 -4.73268e-09     0.997826 
         -50      1.28985  5.41273e-07 -4.15108e-09     0.997823 
         -50      1.36054  5.33066e-07 -2.51296e-09      0.99782 
         -50      1.43308  5.25731e-07   9.3893e-10     0.997817 
         -50      1.50751  5.19446e-07   6.3172e-09     0.997813 
         -50      1.58382    5.111e-07  4.89065e-09     0.997809 
         -50      1.66204  5.16614e-07  7.95562e-09     0.997805 
         -50      1.74212  5.29462e-07  1.30551e-08     0.997801 
         -50      1.82409  5.44265e-07  1.82881e-08     0.997796 
         -50      1.90793  5.56865e-07  2.23204e-08     0.997791 
         -50       1.9937  5.64364e-07  2.43753e-08     0.997786 
         -50      2.08131  5.65091e-07  2.41947e-08     0.997781 
         -50      2.17081  5.58544e-07  2.19822e-08     0.997774 
         -50      2.26223  5.45244e-07  1.83102e-08     0.997768 
         -50       2.3555  5.26577e-07  1.40191e-08     0.997761 
         -50      2.45065  5.04536e-07  1.00815e-08     0.997754 
         -50      2.54769  4.81468e-07  7.47114e-09     0.997746 
         -50      2.64665  4.59774e-07  7.02221e-09     0.997738 
         -50      2.74746  4.41633e-07  9.29956e-09      0.99773 
         -50      2.85014  4.28659e-07  1.44906e-08      0.99772 
         -50      2.95472  4.21682e-07  2.23421e-08     0.997711 
         -50      3.06122  4.20561e-07  3.21625e-08     0.997701 
         -50      3.16956  4.24114e-07  4.28916e-08      0.99769 
         -50      3.27979  4.30214e-07  5.33317e-08     0.997679 
         -50       3.3919   4.3611e-07  6.24946e-08     0.997667 
         -50      3.50594  4.39035e-07  7.01672e-08     0.997655 
         -50      3.62181  4.37179e-07   7.7705e-08     0.997642 
         -50      3.73958  4.31133e-07  8.91546e-08     0.997628 
         -50      3.85927  4.36542e-07  8.11283e-08     0.997614 
         -50       3.9808    4.427e-07   8.3467e-08     0.997599 
         -50      4.10422  4.43444e-07  9.52139e-08     0.997583 
         -50      4.22952  4.43389e-07  9.88407e-08     0.997566 
         -50      4.35675  4.43362e-07  9.60012e-08     0.997549 
         -50      4.48582  4.43263e-07  9.00187e-08     0.997531 
         -50      4.61677  4.42676e-07  8.42716e-08     0.997513 
         -50      4.74961  4.41358e-07  8.09523e-08     0.997493 
         -50      4.88438  4.39541e-07  8.03802e-08     0.997473 
         -50      5.02099  4.37968e-07  8.10907e-08     0.997452 
         -50      5.15948  4.37566e-07  8.09628e-08      0.99743 
         -50      5.29985  4.38653e-07  7.96805e-08     0.997407 
         -50      5.44217  4.39562e-07  8.28648e-08     0.997383 
         -50      5.58631  4.36661e-07  7.52588e-08     0.997358 
         -50      5.73233  4.34084e-07  8.03209e-08     0.997332 
         -50      5.88024  4.34131e-07  8.34364e-08     0.997305 
         -50       6.0301  4.36909e-07  8.26776e-08     0.997277 
         -50      6.18178  4.41148e-07  8.15776e-08     0.997249 
         -50      6.33534  4.45103e-07  8.27067e-08     0.997219 
         -50      6.49085  4.47556e-07  8.47284e-08     0.997188 
         -50      6.64818  4.48932e-07  8.40626e-08     0.997156 
         -50      6.80739  4.51135e-07  8.23131e-08     0.997122 
         -50      6.96849  4.52591e-07  9.02411e-08     0.997088 
         -50      7.13154  4.54307e-07   8.2688e-08     0.997052 
         -50      7.29641  4.51287e-07  9.67558e-08     0.997016 
         -50      7.46316  4.48424e-07  1.01542e-07     0.996978 
         -50       7.6318    4.462e-07  9.80528e-08     0.996938 
         -50      7.80239  4.44499e-07  9.11021e-08     0.996898 
         -50      7.97479  4.43266e-07  8.22476e-08     0.996856 
         -50      8.14908  4.42751e-07  7.24803e-08     0.996813 
         -50      8.32526  4.43634e-07  6.38634e-08     0.996768 
         -50      8.50338  4.46981e-07  5.97592e-08     0.996722 
         -50      8.68333  4.53996e-07  6.33016e-08     0.996675 
         -50      8.86515  4.61621e-07  7.02269e-08     0.996626 
         -50      9.04894  4.63452e-07  6.71708e-08     0.996576 
         -50      9.23453  4.54067e-07  5.87011e-08     0.996524 
         -50      9.42201  4.44933e-07  3.63339e-08     0.996471 
         -50      9.61137  4.41934e-07  5.23381e-08     0.996416 
         -50      9.80269  4.43068e-07  4.93714e-08      0.99636 
         -50      9.99583  4.43195e-07  4.26302e-08     0.996302 
         -50      10.1908  4.41436e-07  3.85169e-08     0.996243 
         -50      10.3877  4.39122e-07  3.79765e-08     0.996182 
         -50      10.5866  4.38085e-07  3.93757e-08     0.996119 
         -50      10.7873  4.39396e-07  4.07539e-08     0.996055 
         -50      10.9898  4.42678e-07  4.12703e-08     0.995988 
         -50      11.1943  4.46129e-07  4.16254e-08     0.995921 
         -50      11.4007  4.47421e-07  4.32364e-08     0.995851 
         -50      11.6089  4.45622e-07   4.5908e-08      0.99578 
         -50       11.819  4.44352e-07  4.37333e-08     0.995706 
         -50       12.031  4.47923e-07  4.56681e-08     0.995631 
         -50      12.2449  4.50187e-07  5.17345e-08     0.995555 
         -50      12.4606  4.51252e-07  5.15729e-08     0.995476 
         -50      12.6782  4.49429e-07  4.90198e-08     0.995395 
         -50      12.8978  4.41845e-07  4.67032e-08     0.995313 
         -50      13.1192  4.46189e-07  4.96144e-08     0.995228 
         -50      13.3425  4.48788e-07  5.81886e-08     0.995142 
         -50      13.5677  4.44509e-07  6.73848e-08     0.995054 
         -50      13.7948  4.40032e-07  7.47674e-08     0.994963 
         -50      14.0237  4.38383e-07   7.9243e-08     0.994871 
         -50      14.2546   4.3993e-07  8.09289e-08     0.994777 
         -50      14.4873  4.43373e-07  8.08752e-08      0.99468 
         -50      14.7219  4.46699e-07  8.06733e-08     0.994582 
         -50      14.9584  4.48065e-07  8.19121e-08     0.994481 
         -50      15.1968  4.46625e-07  8.54647e-08     0.994379 
         -50      15.4371  4.43224e-07    9.059e-08     0.994274 
         -50      15.6792  4.40973e-07  9.38115e-08     0.994167 
         -50      15.9232  4.45641e-07  8.75847e-08     0.994058 
         -50      16.1691  4.41966e-07  9.78393e-08     0.993946 
         -50       16.417  4.42202e-07  1.08511e-07     0.993833 
         -50      16.6666  4.46008e-07    1.111e-07     0.993717 
         -50      16.9182  4.47895e-07   1.0725e-07     0.993599 
         -50      17.1716  4.42971e-07  1.01332e-07     0.993479 
         -50       17.427  4.27312e-07  1.00289e-07     0.993357 
         -50      17.6842  4.30049e-07  1.04674e-07     0.993232 
         -50      17.9433  4.35201e-07  1.07525e-07     0.993105 
         -50      18.2042    4.319e-07  1.09949e-07     0.992976 
         -50      18.4672  4.24188e-07  1.12602e-07     0.992845 
         -50      18.7319  4.15982e-07  1.16173e-07     0.992711 
         -50      18.9985  4.10438e-07  1.20836e-07     0.992575 
         -50       19.267  4.09479e-07  1.25622e-07     0.992436 
         -50      19.5375  4.13465e-07  1.27723e-07     0.992296 
         -50      19.8098   4.1904e-07  1.22675e-07     0.992153 
         -50       20.084  4.10336e-07  1.24242e-07     0.992007 
         -50      20.3601  4.09735e-07  1.28455e-07     0.991859 
         -50       20.638  4.12681e-07   1.3375e-07     0.991709 
         -50      20.9178  4.16138e-07  1.39021e-07     0.991557 
         -50      21.1995   4.1833e-07  1.43559e-07     0.991402 
         -50      21.4832  4.18473e-07  1.47007e-07     0.991244 
         -50      21.7687  4.16534e-07  1.49293e-07     0.991085 
         -50       22.056  4.12982e-07  1.50583e-07     0.990923 
         -50      22.3452  4.08575e-07  1.51213e-07     0.990758 
         -50      22.6365  4.04151e-07   1.5163e-07     0.990591 
         -50      22.9295  4.00466e-07  1.52328e-07     0.990422 
         -50      23.2243  3.98041e-07   1.5378e-07     0.990251 
         -50      23.5211  3.97069e-07  1.56379e-07     0.990077 
         -50      23.8199  3.97357e-07  1.60373e-07       0.9899 
         -50      24.1204  3.98317e-07  1.65791e-07     0.989722 
         -50      24.4228  3.99024e-07  1.72396e-07     0.989541 
         -50      24.7272  3.98338e-07  1.79616e-07     0.989357 
         -50      25.0334  3.95097e-07  1.86481e-07     0.989171 
         -50      25.3415  3.88402e-07  1.91584e-07     0.988983 
         -50      25.6514  3.77559e-07  1.87913e-07     0.988793 
         -50      25.9634  3.72194e-07  1.48828e-07       0.9886 
         -50      26.2771  3.73801e-07  1.47902e-07     0.988404 
         -50      26.5927   3.7588e-07  1.44686e-07     0.988207 
         -50      26.9102  3.76541e-07   1.5008e-07     0.988007 
         -50      27.2297  3.77448e-07  1.64192e-07     0.987805 
         -50       27.551  3.77227e-07  1.77385e-07       0.9876 
         -50      27.8741  3.76031e-07  1.87383e-07     0.987394 
         -50      28.1991  3.74328e-07   1.9402e-07     0.987185 
         -50      28.5262  3.72467e-07  1.97612e-07     0.986973 
         -50       28.855  3.70692e-07  1.98787e-07      0.98676 
         -50      29.1856  3.69148e-07  1.98333e-07     0.986544 
         -50      29.5183  3.67894e-07  1.97058e-07     0.986326 
         -50      29.8528  3.66919e-07  1.95673e-07     0.986106 
         -50      30.1891  3.66154e-07  1.94703e-07     0.985883 
         -50      30.5273  3.65489e-07  1.94431e-07     0.985659 
         -50      30.8676  3.64791e-07  1.94866e-07     0.985432 
         -50      31.2096  3.63918e-07  1.95758e-07     0.985203 
         -50      31.5534  3.62747e-07  1.96654e-07     0.984972 
         -50      31.8992  3.61188e-07  1.96998e-07     0.984739 
         -50      32.2469  3.59209e-07  1.96288e-07     0.984504 
         -50      32.5965  3.56863e-07  1.94284e-07     0.984267 
         -50      32.9479  3.54312e-07  1.91292e-07     0.984028 
         -50      33.3012  3.51853e-07  1.88504e-07     0.983787 
         -50      33.6565  3.49949e-07  1.88422e-07     0.983543 
         -50      34.0135  3.49263e-07  1.95363e-07     0.983298 
         -50      34.3725  3.52833e-07  1.89178e-07     0.983051 
         -50      34.7334  3.50789e-07  1.84628e-07     0.982802 
         -50      35.0962  3.44264e-07  1.90554e-07     0.982551 
         -50      35.4608   3.4079e-07  1.95031e-07     0.982299 
         -50      35.8272  3.37436e-07  1.94898e-07     0.982044 
         -50      36.1957  3.32635e-07  1.95609e-07     0.981787 
         -50       36.566  3.27728e-07  1.96861e-07     0.981529 
         -50      36.9381  3.23522e-07  1.98366e-07     0.981269 
         -50      37.3121  3.20393e-07  1.99873e-07     0.981008 
         -50      37.6882  3.18379e-07  2.01179e-07     0.980744 
         -50       38.066   3.1727e-07   2.0214e-07     0.980479 
         -50      38.4456  3.16703e-07  2.02677e-07     0.980212 
         -50      38.8272  3.16249e-07   2.0277e-07     0.979944 
         -50      39.2108  3.15502e-07  2.02445e-07     0.979674 
         -50      39.5961  3.14164e-07  2.01756e-07     0.979402 
         -50      39.9833  3.12127e-07  2.00754e-07     0.979129 
         -50      40.3724  3.09541e-07  1.99446e-07     0.978855 
         -50      40.7635   3.0689e-07  1.97741e-07     0.978579 
         -50      41.1564  3.05057e-07  1.95391e-07     0.978301 
         -50      41.5511  3.05368e-07  1.91911e-07     0.978022 
         -50      41.9479  3.09649e-07  1.86481e-07     0.977742 
         -50      42.3464  3.17392e-07  1.79288e-07     0.977461 
         -50      42.7468   3.0286e-07  1.84342e-07     0.977178 
         -50      43.1491  2.95801e-07  1.87003e-07     0.976894 
         -50      43.5534  2.93368e-07  1.87976e-07     0.976608 
         -50      43.9595  2.93427e-07   1.8798e-07     0.976322 
         -50      44.3674  2.94323e-07  1.87679e-07     0.976034 
         -50      44.7772  2.94684e-07  1.87624e-07     0.975745 
         -50      45.1891  2.93214e-07  1.88205e-07     0.975455 
         -50      45.6027  2.88515e-07  1.89623e-07     0.975164 
         -50      46.0181  2.83361e-07  1.89146e-07     0.974872 
         -50      46.4355  2.82687e-07  1.86589e-07     0.974578 
         -50      46.8549   2.8141e-07  1.85489e-07     0.974284 
         -50       47.276  2.79604e-07  1.84889e-07     0.973989 
         -50       47.699    2.774e-07  1.84264e-07     0.973693 
         -50      48.1241  2.74954e-07  1.83429e-07     0.973396 
         -50      48.5508  2.72438e-07  1.82446e-07     0.973098 
         -50      48.9795  2.70022e-07  1.81515e-07       0.9728 
         -50        49.41  2.67878e-07   1.8086e-07     0.972501 
         -50      49.8426  2.66198e-07  1.80606e-07     0.972201 
         -50      50.2769  2.65217e-07  1.80646e-07       0.9719 
         -50      50.7131  2.65249e-07  1.80497e-07     0.971599 
         -50      51.1512  2.66748e-07  1.79144e-07     0.971297 
         -50      51.5914  2.70381e-07  1.74876e-07     0.970994 
         -50      52.0332  2.65056e-07  1.78351e-07     0.970691 
         -50      52.4769   2.5893e-07  1.81436e-07     0.970387 
         -50      52.9225   2.5464e-07  1.81935e-07     0.970083 
         -50      53.3702  2.51484e-07  1.81025e-07     0.969778 
         -50      53.8196  2.48983e-07  1.79511e-07     0.969473 
         -50      54.2709   2.4682e-07  1.77891e-07     0.969168 
         -50      54.7242    2.448e-07   1.7642e-07     0.968862 
         -50      55.1792  2.42817e-07  1.75175e-07     0.968556 
         -50      55.6362  2.40816e-07  1.74113e-07     0.968249 
         -50       56.095  2.38788e-07  1.73133e-07     0.967943 
         -50      56.5558  2.36753e-07  1.72124e-07     0.967636 
         -50      57.0184  2.34779e-07  1.71027e-07     0.967329 
         -50      57.4829   2.3299e-07  1.69871e-07     0.967022 
         -50      57.9492  2.31605e-07  1.68823e-07     0.966714 
         -50      58.4176  2.30991e-07  1.68223e-07     0.966407 
         -50      58.8877  2.31725e-07  1.68616e-07     0.966099 
         -50      59.3597  2.34682e-07  1.70774e-07     0.965792 
         -50      59.8336   2.3301e-07  1.70264e-07     0.965485 
         -50      60.3096  2.30146e-07  1.68947e-07     0.965177 
         -50      60.7872  2.27371e-07  1.68373e-07      0.96487 
         -50      61.2667  2.24274e-07  1.68546e-07     0.964563 
         -50      61.7484  2.20937e-07   1.6914e-07     0.964256 
         -50      62.2317  2.17984e-07  1.69414e-07     0.963949 
         -50      62.7168  2.16613e-07  1.68118e-07     0.963642 
         -50      63.2039   2.1865e-07  1.63397e-07     0.963336 
         -50      63.6931  2.21667e-07  1.60496e-07      0.96303 
         -50      64.1839  2.19436e-07  1.61393e-07     0.962724 
         -50      64.6766  2.15493e-07  1.61202e-07     0.962419 
         -50      65.1712  2.11262e-07  1.60693e-07     0.962114 
         -50      65.6679  2.07698e-07  1.60329e-07     0.961809 
         -50      66.1663  2.05337e-07  1.60321e-07     0.961505 
         -50      66.6665  2.04348e-07  1.60673e-07     0.961202 
         -50      67.1687  2.04604e-07  1.61237e-07     0.960898 
         -50      67.6729  2.05743e-07  1.61763e-07     0.960596 
         -50      68.1788  2.07246e-07  1.61952e-07     0.960294 
         -50      68.6866  2.08515e-07  1.61509e-07     0.959992 
         -50      69.1963  2.08961e-07  1.60193e-07     0.959692 
         -50      69.7081  2.08092e-07  1.57867e-07     0.959391 
         -50      70.2215  2.05619e-07  1.54554e-07     0.959092 
         -50      70.7368  2.01554e-07  1.50484e-07     0.958793 
         -50      71.2543  1.96326e-07  1.46139e-07     0.958495 
         -50      71.7734  1.90912e-07  1.42316e-07     0.958198 
         -50      72.2943  1.86946e-07  1.40157e-07     0.957902 
         -50      72.8172  1.86869e-07  1.41202e-07     0.957606 
         -50      73.3422  1.93768e-07  1.47109e-07     0.957311 
         -50      73.8688   1.9544e-07  1.47099e-07     0.957018 
         -50      74.3973  1.93594e-07   1.4704e-07     0.956725 
         -50      74.9277  1.89157e-07   1.5067e-07     0.956433 
         -50      75.4602  1.80391e-07  1.61771e-07     0.956142 
         -50      75.9944  1.79157e-07  1.57151e-07     0.955852 
         -50      76.5305  1.83113e-07  1.44798e-07     0.955564 
         -50      77.0684   1.8519e-07  1.36974e-07     0.955276 
         -50      77.6084  1.85391e-07  1.32987e-07     0.954989 
         -50      78.1502  1.83901e-07  1.32128e-07     0.954704 
         -50      78.6937   1.8105e-07  1.33668e-07     0.954419 
         -50      79.2394  1.77265e-07  1.36871e-07     0.954136 
         -50      79.7868  1.73881e-07  1.39383e-07     0.953854 
         -50      80.3361  1.73584e-07  1.36252e-07     0.953573 
         -50      80.8872  1.73333e-07  1.33377e-07     0.953294 
         -50      81.4404  1.73053e-07  1.30818e-07     0.953016 
         -50      81.9953  1.72652e-07  1.28634e-07     0.952739 
         -50      82.5521  1.72043e-07  1.26856e-07     0.952464 
         -50      83.1108  1.71169e-07  1.25481e-07     0.952189 
         -50      83.6715  1.70015e-07  1.24458e-07     0.951917 
         -50       84.234  1.68622e-07  1.23691e-07     0.951645 
         -50      84.7983   1.6708e-07  1.23042e-07     0.951376 
         -50      85.3645  1.65527e-07  1.22342e-07     0.951107 
         -50      85.9328   1.6413e-07  1.21412e-07      0.95084 
         -50      86.5028  1.63061e-07   1.2009e-07     0.950575 
         -50      87.0747  1.62464e-07  1.18264e-07     0.950311 
         -50      87.6486  1.62405e-07  1.15922e-07     0.950049 
         -50      88.2243  1.62821e-07  1.13205e-07     0.949789 
         -50      88.8018  1.63446e-07  1.10468e-07      0.94953 
         -50      89.3812  1.63739e-07  1.08361e-07     0.949272 
         -50      89.9627  1.62782e-07  1.07911e-07     0.949017 
         -50      90.5458  1.59178e-07  1.10624e-07     0.948763 
         -50      91.1309  1.52624e-07  1.15704e-07     0.948511 
         -50      91.7178  1.50988e-07  1.12371e-07      0.94826 
         -50      92.3069  1.49842e-07  1.10194e-07     0.948011 
         -50      92.8976  1.49154e-07  1.08679e-07     0.947765 
         -50      93.4901   1.4885e-07  1.07461e-07     0.947519 
         -50      94.0846  1.48823e-07  1.06307e-07     0.947276 
         -50      94.6812  1.48944e-07  1.05093e-07     0.947035 
         -50      95.2794  1.49075e-07  1.03805e-07     0.946795 
         -50      95.8796  1.49077e-07  1.02518e-07     0.946558 
         -50      96.4818  1.48823e-07  1.01386e-07     0.946322 
         -50      97.0857  1.48206e-07   1.0063e-07     0.946089 
         -50      97.6915  1.47153e-07  1.00521e-07     0.945857 
         -50      98.2991  1.45796e-07  1.00556e-07     0.945628 
         -50      98.9089  1.44924e-07  9.88977e-08       0.9454 
         -50      99.5203  1.44369e-07  9.71738e-08     0.945175 
         -50      100.134  1.44046e-07  9.54268e-08     0.944952 
         -50      100.749  1.43873e-07  9.36989e-08      0.94473 
         -50      101.366  1.43777e-07  9.20285e-08     0.944511 
         -50      101.985  1.43694e-07  9.04507e-08     0.944294 
         -50      102.606   1.4357e-07  8.89919e-08      0.94408 
         -50      103.229  1.43366e-07  8.76711e-08     0.943867 
         -50      103.854  1.43053e-07  8.64971e-08     0.943657 
         -50       104.48  1.42619e-07  8.54704e-08     0.943449 
         -50      105.108   1.4206e-07  8.45791e-08     0.943243 
         -50      105.739  1.41385e-07  8.38016e-08     0.943039 
         -50      106.371  1.40611e-07  8.31056e-08     0.942838 
         -50      107.005  1.39759e-07  8.24502e-08     0.942639 
         -50      107.641  1.38849e-07  8.17858e-08     0.942442 
         -50      108.279  1.37898e-07  8.10562e-08     0.942248 
         -50      108.919   1.3691e-07   8.0202e-08     0.942056 
         -50       109.56  1.35872e-07  7.91618e-08     0.941867 
         -50      110.204  1.34743e-07  7.78765e-08      0.94168 
         -50      110.849  1.33441e-07  7.62924e-08     0.941496 
         -50      111.497  1.31842e-07  7.43686e-08     0.941315 
         -50      112.146  1.32417e-07  7.29113e-08     0.941136 
         -50      112.797  1.34297e-07  7.20427e-08     0.940959 
         -50       113.45  1.34767e-07  7.09058e-08     0.940784 
         -50      114.105  1.34279e-07  6.95413e-08     0.940612 
         -50      114.761  1.33195e-07   6.8016e-08     0.940443 
         -50       115.42  1.31801e-07   6.6414e-08     0.940276 
         -50      116.081  1.30324e-07  6.48252e-08     0.940112 
         -50      116.743  1.28938e-07  6.33365e-08     0.939951 
         -50      117.407  1.27768e-07   6.2017e-08     0.939793 
         -50      118.073  1.26898e-07  6.09081e-08     0.939638 
         -50      118.741  1.26365e-07   6.0012e-08     0.939486 
         -50      119.411  1.26159e-07   5.9277e-08     0.939337 
         -50      120.083  1.26208e-07  5.85858e-08      0.93919 
         -50      120.757  1.26374e-07  5.77415e-08     0.939046 
         -50      121.432  1.26427e-07  5.64548e-08     0.938905 
         -50       122.11  1.26029e-07  5.43277e-08     0.938766 
         -50      122.789  1.24703e-07  5.08402e-08      0.93863 
         -50       123.47  1.25827e-07  5.00296e-08     0.938498 
         -50      124.153  1.26468e-07  4.90504e-08     0.938369 
         -50      124.838   1.2666e-07  4.79278e-08     0.938243 
         -50      125.525  1.26454e-07  4.67072e-08      0.93812 
         -50      126.214  1.25903e-07  4.54381e-08        0.938 
         -50      126.905   1.2507e-07  4.41732e-08     0.937882 
         -50      127.597  1.24021e-07   4.2963e-08     0.937768 
         -50      128.292  1.22825e-07  4.18531e-08     0.937657 
         -50      128.988   1.2156e-07   4.0882e-08     0.937548 
         -50      129.686  1.20303e-07  4.00735e-08     0.937443 
         -50      130.386  1.19137e-07  3.94336e-08      0.93734 
         -50      131.088  1.18142e-07   3.8944e-08      0.93724 
         -50      131.792  1.17402e-07  3.85564e-08     0.937143 
         -50      132.497  1.16997e-07  3.81842e-08     0.937049 
         -50      133.205  1.17004e-07   3.7696e-08     0.936957 
         -50      133.915  1.17493e-07  3.69063e-08     0.936868 
         -50      134.626  1.17609e-07  3.54136e-08     0.936783 
         -50      135.339  1.17711e-07  3.34837e-08     0.936704 
         -50      136.054  1.19819e-07  3.18062e-08     0.936627 
         -50      136.771  1.22481e-07  3.02934e-08     0.936552 
         -50       137.49  1.24569e-07  2.88767e-08     0.936481 
         -50      138.211  1.25329e-07  2.75039e-08     0.936413 
         -50      138.934  1.24399e-07  2.61409e-08     0.936348 
         -50      139.658  1.21807e-07  2.47722e-08     0.936287 
         -50      140.385  1.17934e-07  2.33957e-08      0.93623 
         -50      141.113  1.13459e-07  2.20221e-08     0.936177 
         -50      141.843  1.09265e-07  2.06701e-08     0.936127 
         -50      142.575  1.06326e-07   1.9363e-08     0.936081 
         -50      143.309  1.05539e-07  1.81199e-08     0.936039 
         -50      144.045  1.07545e-07  1.69502e-08     0.936001 
         -50      144.783  1.12499e-07  1.58444e-08     0.935966 
         -50      145.523  1.19806e-07  1.47655e-08     0.935936 
         -50      146.264  1.27821e-07  1.36355e-08     0.935909 
         -50      147.007  1.33501e-07  1.23246e-08     0.935885 
         -50      147.753  1.32014e-07  1.06354e-08     0.935866 
         -50        148.5  1.16312e-07  8.29074e-09     0.935852 
         -50      149.249  7.66467e-08  4.91186e-09     0.935841 
         -50          150  6.93149e-22  4.05806e-23     0.935836 
         -25            0           -0           -0     0.958898 
         -25     0.000942  1.12642e-07  1.91529e-11     0.958898 
         -25     0.003768  3.46694e-07  6.93328e-11     0.958898 
         -25     0.008478  4.99415e-07  1.37687e-10     0.958898 
         -25     0.015075  4.84721e-07  2.24909e-10     0.958898 
         -25     0.023553  4.18863e-07  3.56974e-10     0.958898 
         -25     0.033916  4.48941e-07  5.78786e-10     0.958898 
         -25     0.046163  5.18494e-07  9.37819e-10     0.958898 
         -25       0.0603  4.97041e-07  1.48334e-09     0.958898 
         -25     0.076315  5.67351e-07  2.27214e-09     0.958898 
         -25     0.094215  5.55899e-07  3.33936e-09     0.958898 
         -25     0.113999  5.71136e-07  4.76177e-09     0.958898 
         -25     0.135675  5.71672e-07  6.58679e-09     0.958898 
         -25     0.159228  5.71698e-07  8.85937e-09     0.958898 
         -25     0.184664  5.63801e-07  1.16164e-08     0.958897 
         -25     0.211985  5.46189e-07  1.48945e-08     0.958897 
         -25     0.241201  5.29043e-07  1.87234e-08     0.958897 
         -25      0.27229  5.02857e-07  2.31144e-08     0.958897 
         -25     0.305263  4.75985e-07  2.81235e-08     0.958897 
         -25     0.340135  4.47261e-07  3.37734e-08     0.958897 
         -25     0.376877  4.18624e-07  4.00229e-08     0.958897 
         -25     0.415503  3.91331e-07  4.67738e-08     0.958897 
         -25     0.456013  3.66217e-07  5.38772e-08     0.958896 
         -25     0.498424  3.43963e-07  6.11761e-08     0.958896 
         -25     0.542703  3.25273e-07  6.85619e-08     0.958896 
         -25     0.588866  3.10452e-07  7.60981e-08     0.958896 
         -25     0.636912  2.99029e-07  8.39975e-08     0.958895 
         -25     0.686864  2.90961e-07  9.22452e-08     0.958895 
         -25     0.738679   2.8537e-07   1.0077e-07     0.958894 
         -25     0.792379  2.81472e-07  1.09461e-07     0.958894 
         -25     0.847962  2.78524e-07  1.18193e-07     0.958893 
         -25     0.905453   2.7587e-07  1.26844e-07     0.958893 
         -25     0.964806  2.73003e-07  1.35289e-07     0.958892 
         -25      1.02604  2.69615e-07  1.43434e-07     0.958891 
         -25      1.08919  2.65617e-07  1.51209e-07      0.95889 
         -25      1.15419  2.61152e-07  1.58565e-07      0.95889 
         -25      1.22108  2.56534e-07  1.65481e-07     0.958889 
         -25      1.28985  2.52135e-07  1.71937e-07     0.958888 
         -25      1.36054  2.48177e-07  1.77878e-07     0.958886 
         -25      1.43308  2.44406e-07  1.83139e-07     0.958885 
         -25      1.50751  2.39574e-07  1.87388e-07     0.958884 
         -25      1.58382  2.38139e-07   1.9238e-07     0.958882 
         -25      1.66204  2.44367e-07  1.96224e-07     0.958881 
         -25      1.74212  2.53653e-07  1.99027e-07     0.958879 
         -25      1.82409  2.62633e-07  2.00933e-07     0.958878 
         -25      1.90793  2.69167e-07  2.02113e-07     0.958876 
         -25       1.9937  2.72281e-07  2.02752e-07     0.958874 
         -25      2.08131  2.72038e-07  2.03045e-07     0.958871 
         -25      2.17081  2.69365e-07  2.03181e-07     0.958869 
         -25      2.26223  2.65806e-07  2.03335e-07     0.958867 
         -25       2.3555  2.63256e-07  2.03648e-07     0.958864 
         -25      2.45065  2.63636e-07  2.04221e-07     0.958861 
         -25      2.54769  2.68578e-07  2.05101e-07     0.958859 