Variables = x, y, u, v, p

Zone, I=3600, F=POINT
         -50            0            0            0     0.178291 
         -50     0.000942 -5.13478e-07 -1.07065e-11     0.178291 
         -50     0.003768 -1.59927e-06 -5.36783e-11     0.178291 
         -50     0.008478 -2.35715e-06 -1.50437e-10     0.178291 
         -50     0.015075 -2.36722e-06 -3.09502e-10     0.178291 
         -50     0.023553 -2.08305e-06 -5.10365e-10     0.178291 
         -50     0.033916 -2.13879e-06 -7.10506e-10     0.178291 
         -50     0.046163 -2.34822e-06 -8.65416e-10     0.178291 
         -50       0.0603 -2.17416e-06 -9.37852e-10     0.178291 
         -50     0.076315 -2.35885e-06 -9.10706e-10     0.178291 
         -50     0.094215 -2.26961e-06 -8.07266e-10     0.178291 
         -50     0.113999 -2.29903e-06 -5.59054e-10     0.178291 
         -50     0.135675 -2.30315e-06 -1.64562e-10     0.178291 
         -50     0.159228 -2.32565e-06  4.05272e-10     0.178291 
         -50     0.184664 -2.34414e-06  1.17971e-09     0.178291 
         -50     0.211985 -2.35087e-06  2.17498e-09     0.178291 
         -50     0.241201 -2.37296e-06  3.33398e-09     0.178291 
         -50      0.27229  -2.3787e-06   4.5468e-09     0.178291 
         -50     0.305263 -2.38813e-06   5.1675e-09     0.178291 
         -50     0.340135 -2.39388e-06  4.79631e-09     0.178291 
         -50     0.376877 -2.39763e-06  3.75694e-09     0.178291 
         -50     0.415503 -2.39971e-06  2.84096e-09     0.178291 
         -50     0.456013 -2.39976e-06  2.91523e-09     0.178291 
         -50     0.498424 -2.39754e-06  4.40826e-09      0.17829 
         -50     0.542703 -2.39337e-06    6.818e-09      0.17829 
         -50     0.588866 -2.38756e-06  8.51572e-09      0.17829 
         -50     0.636912 -2.37864e-06  6.13584e-09      0.17829 
         -50     0.686864 -2.36849e-06  3.17045e-09      0.17829 
         -50     0.738679 -2.35822e-06  1.58152e-09      0.17829 
         -50     0.792379 -2.34834e-06  1.15272e-09     0.178289 
         -50     0.847962 -2.33928e-06  1.46344e-09     0.178289 
         -50     0.905453 -2.33126e-06  1.98271e-09     0.178289 
         -50     0.964806 -2.32439e-06  2.18837e-09     0.178288 
         -50      1.02604 -2.31862e-06  1.69806e-09     0.178288 
         -50      1.08919 -2.31379e-06  3.82648e-10     0.178288 
         -50      1.15419  -2.3097e-06 -1.56532e-09     0.178287 
         -50      1.22108 -2.30615e-06 -3.66641e-09     0.178287 
         -50      1.28985 -2.30305e-06 -5.34527e-09     0.178286 
         -50      1.36054 -2.30056e-06 -6.36795e-09     0.178286 
         -50      1.43308 -2.29917e-06  -7.6263e-09     0.178285 
         -50      1.50751 -2.29969e-06 -1.22444e-08     0.178284 
         -50      1.58382 -2.28988e-06  -1.2395e-08     0.178284 
         -50      1.66204 -2.28183e-06 -1.61309e-08     0.178283 
         -50      1.74212 -2.27317e-06 -2.12859e-08     0.178282 
         -50      1.82409 -2.26191e-06 -2.61172e-08     0.178281 
         -50      1.90793 -2.24659e-06 -2.93326e-08      0.17828 
         -50       1.9937 -2.22626e-06 -3.01064e-08     0.178279 
         -50      2.08131 -2.20057e-06 -2.80753e-08     0.178278 
         -50      2.17081 -2.16972e-06 -2.33178e-08     0.178277 
         -50      2.26223  -2.1345e-06 -1.63037e-08     0.178276 
         -50       2.3555 -2.09623e-06 -7.84297e-09     0.178274 
         -50      2.45065  -2.0567e-06  1.01679e-09     0.178273 
         -50      2.54769 -2.01805e-06  9.08296e-09     0.178272 
         -50      2.64665 -1.98263e-06  1.51409e-08      0.17827 
         -50      2.74746 -1.95289e-06  1.80752e-08     0.178268 
         -50      2.85014 -1.93106e-06  1.70216e-08     0.178267 
         -50      2.95472 -1.91895e-06  1.14911e-08     0.178265 
         -50      3.06122 -1.91761e-06  1.49313e-09     0.178263 
         -50      3.16956 -1.92701e-06  -1.2343e-08     0.178261 
         -50      3.27979 -1.94556e-06 -2.87235e-08     0.178259 
         -50       3.3919 -1.96972e-06 -4.56587e-08     0.178257 
         -50      3.50594 -1.99344e-06 -6.05238e-08     0.178254 
         -50      3.62181 -2.00759e-06 -7.01827e-08     0.178252 
         -50      3.73958 -1.99939e-06 -7.12894e-08     0.178249 
         -50      3.85927 -2.02071e-06 -7.90826e-08     0.178246 
         -50       3.9808  -2.0402e-06 -8.78622e-08     0.178244 
         -50      4.10422 -2.05344e-06 -9.77132e-08     0.178241 
         -50      4.22952 -2.06474e-06 -1.07486e-07     0.178238 
         -50      4.35675 -2.07474e-06 -1.17207e-07     0.178234 
         -50      4.48582 -2.08322e-06  -1.2734e-07     0.178231 
         -50      4.61677 -2.08967e-06 -1.38271e-07     0.178227 
         -50      4.74961  -2.0939e-06 -1.49929e-07     0.178224 
         -50      4.88438 -2.09625e-06 -1.61679e-07      0.17822 
         -50      5.02099 -2.09775e-06 -1.72508e-07     0.178216 
         -50      5.15948 -2.09981e-06 -1.81717e-07     0.178212 
         -50      5.29985 -2.10347e-06 -1.90105e-07     0.178207 
         -50      5.44217 -2.10813e-06  -2.0189e-07     0.178203 
         -50      5.58631 -2.12316e-06 -2.06169e-07     0.178198 
         -50      5.73233 -2.13408e-06   -2.106e-07     0.178193 
         -50      5.88024 -2.14052e-06 -2.16623e-07     0.178188 
         -50       6.0301  -2.1434e-06 -2.22212e-07     0.178183 
         -50      6.18178  -2.1441e-06 -2.25517e-07     0.178178 
         -50      6.33534 -2.14426e-06 -2.26908e-07     0.178172 
         -50      6.49085 -2.14559e-06 -2.29494e-07     0.178166 
         -50      6.64818 -2.14974e-06 -2.37677e-07      0.17816 
         -50      6.80739  -2.1552e-06 -2.48881e-07     0.178154 
         -50      6.96849 -2.15082e-06 -2.49563e-07     0.178147 
         -50      7.13154  -2.1492e-06 -2.63158e-07     0.178141 
         -50      7.29641  -2.1501e-06 -2.67034e-07     0.178134 
         -50      7.46316 -2.15434e-06 -2.69295e-07     0.178127 
         -50       7.6318 -2.15648e-06 -2.76296e-07     0.178119 
         -50      7.80239 -2.15569e-06 -2.86536e-07     0.178112 
         -50      7.97479 -2.15402e-06 -2.96958e-07     0.178104 
         -50      8.14908 -2.15385e-06 -3.05277e-07     0.178096 
         -50      8.32526 -2.15622e-06  -3.1139e-07     0.178087 
         -50      8.50338 -2.15988e-06 -3.17674e-07     0.178079 
         -50      8.68333 -2.16161e-06 -3.27834e-07      0.17807 
         -50      8.86515 -2.15376e-06 -3.42481e-07     0.178061 
         -50      9.04894 -2.14717e-06 -3.55575e-07     0.178051 
         -50      9.23453 -2.15684e-06 -3.37062e-07     0.178041 
         -50      9.42201 -2.15145e-06 -3.67891e-07     0.178031 
         -50      9.61137 -2.15025e-06 -3.78657e-07     0.178021 
         -50      9.80269 -2.14782e-06 -3.84312e-07     0.178011 
         -50      9.99583 -2.14389e-06 -3.90177e-07        0.178 
         -50      10.1908 -2.13894e-06 -3.97488e-07     0.177989 
         -50      10.3877 -2.13375e-06 -4.05352e-07     0.177977 
         -50      10.5866 -2.12897e-06 -4.12365e-07     0.177965 
         -50      10.7873 -2.12487e-06 -4.17761e-07     0.177953 
         -50      10.9898 -2.12127e-06 -4.21996e-07     0.177941 
         -50      11.1943 -2.11768e-06 -4.26586e-07     0.177928 
         -50      11.4007 -2.11371e-06 -4.33077e-07     0.177915 
         -50      11.6089 -2.10979e-06 -4.40954e-07     0.177902 
         -50       11.819 -2.10826e-06 -4.44345e-07     0.177888 
         -50       12.031 -2.10334e-06 -4.51751e-07     0.177874 
         -50      12.2449 -2.09636e-06 -4.61781e-07      0.17786 
         -50      12.4606 -2.09143e-06 -4.67448e-07     0.177845 
         -50      12.6782 -2.08756e-06 -4.73904e-07      0.17783 
         -50      12.8978 -2.08749e-06 -4.81952e-07     0.177814 
         -50      13.1192 -2.08069e-06 -4.92478e-07     0.177799 
         -50      13.3425 -2.07299e-06 -4.96033e-07     0.177782 
         -50      13.5677  -2.0703e-06 -4.96478e-07     0.177766 
         -50      13.7948 -2.06934e-06 -4.98866e-07     0.177749 
         -50      14.0237 -2.06795e-06 -5.04799e-07     0.177732 
         -50      14.2546 -2.06496e-06 -5.13627e-07     0.177714 
         -50      14.4873 -2.06004e-06  -5.2357e-07     0.177696 
         -50      14.7219 -2.05347e-06 -5.32703e-07     0.177678 
         -50      14.9584  -2.0459e-06 -5.39776e-07     0.177659 
         -50      15.1968 -2.03798e-06 -5.44861e-07      0.17764 
         -50      15.4371 -2.02993e-06  -5.4971e-07      0.17762 
         -50      15.6792 -2.02112e-06 -5.57829e-07       0.1776 
         -50      15.9232 -2.00939e-06 -5.74206e-07      0.17758 
         -50      16.1691 -2.01611e-06 -5.77159e-07     0.177559 
         -50       16.417  -2.0164e-06 -5.76342e-07     0.177538 
         -50      16.6666 -2.00977e-06 -5.78375e-07     0.177517 
         -50      16.9182 -2.00135e-06 -5.83872e-07     0.177495 
         -50      17.1716 -1.99445e-06 -5.92685e-07     0.177472 
         -50       17.427 -1.99051e-06 -6.04024e-07      0.17745 
         -50      17.6842 -1.98546e-06 -6.11728e-07     0.177427 
         -50      17.9433 -1.97797e-06 -6.13964e-07     0.177403 
         -50      18.2042 -1.97056e-06 -6.16792e-07     0.177379 
         -50      18.4672 -1.96405e-06   -6.225e-07     0.177355 
         -50      18.7319 -1.95864e-06 -6.30637e-07      0.17733 
         -50      18.9985 -1.95387e-06 -6.38908e-07     0.177304 
         -50       19.267 -1.94869e-06 -6.44731e-07     0.177279 
         -50      19.5375 -1.94135e-06 -6.47572e-07     0.177253 
         -50      19.8098 -1.93114e-06 -6.52171e-07     0.177226 
         -50       20.084 -1.93134e-06 -6.59033e-07     0.177199 
         -50      20.3601 -1.92384e-06 -6.63289e-07     0.177172 
         -50       20.638 -1.91326e-06 -6.66277e-07     0.177144 
         -50      20.9178  -1.9025e-06 -6.69009e-07     0.177116 
         -50      21.1995  -1.8931e-06 -6.72192e-07     0.177087 
         -50      21.4832 -1.88554e-06 -6.76255e-07     0.177058 
         -50      21.7687 -1.87958e-06 -6.81378e-07     0.177029 
         -50       22.056 -1.87453e-06 -6.87535e-07     0.176999 
         -50      22.3452 -1.86951e-06 -6.94524e-07     0.176968 
         -50      22.6365 -1.86367e-06 -7.02013e-07     0.176937 
         -50      22.9295 -1.85642e-06 -7.09575e-07     0.176906 
         -50      23.2243 -1.84747e-06 -7.16754e-07     0.176874 
         -50      23.5211 -1.83699e-06 -7.23103e-07     0.176842 
         -50      23.8199 -1.82554e-06 -7.28247e-07      0.17681 
         -50      24.1204 -1.81405e-06  -7.3193e-07     0.176777 
         -50      24.4228  -1.8036e-06 -7.34096e-07     0.176744 
         -50      24.7272 -1.79522e-06 -7.34943e-07      0.17671 
         -50      25.0334 -1.78943e-06 -7.34994e-07     0.176676 
         -50      25.3415 -1.78581e-06 -7.35177e-07     0.176641 
         -50      25.6514 -1.78293e-06  -7.4028e-07     0.176606 
         -50      25.9634 -1.78282e-06 -7.73137e-07      0.17657 
         -50      26.2771 -1.76348e-06 -7.72112e-07     0.176535 
         -50      26.5927 -1.74338e-06 -7.73475e-07     0.176498 
         -50      26.9102 -1.73266e-06 -7.73759e-07     0.176462 
         -50      27.2297 -1.72714e-06 -7.71506e-07     0.176424 
         -50       27.551 -1.72261e-06 -7.70066e-07     0.176387 
         -50      27.8741 -1.71765e-06 -7.70026e-07     0.176349 
         -50      28.1991 -1.71155e-06 -7.71122e-07     0.176311 
         -50      28.5262 -1.70409e-06  -7.7305e-07     0.176272 
         -50       28.855 -1.69537e-06 -7.75514e-07     0.176233 
         -50      29.1856  -1.6857e-06 -7.78267e-07     0.176193 
         -50      29.5183 -1.67548e-06  -7.8114e-07     0.176153 
         -50      29.8528 -1.66514e-06 -7.84057e-07     0.176113 
         -50      30.1891 -1.65499e-06 -7.87047e-07     0.176072 
         -50      30.5273 -1.64525e-06 -7.90234e-07     0.176031 
         -50      30.8676 -1.63595e-06 -7.93816e-07      0.17599 
         -50      31.2096 -1.62695e-06 -7.98019e-07     0.175948 
         -50      31.5534 -1.61798e-06 -8.03047e-07     0.175906 
         -50      31.8992 -1.60866e-06 -8.08993e-07     0.175863 
         -50      32.2469 -1.59861e-06 -8.15745e-07      0.17582 
         -50      32.5965 -1.58763e-06  -8.2284e-07     0.175777 
         -50      32.9479  -1.5758e-06 -8.29329e-07     0.175733 
         -50      33.3012 -1.56377e-06 -8.33576e-07     0.175689 
         -50      33.6565 -1.55301e-06 -8.33043e-07     0.175645 
         -50      34.0135 -1.54622e-06 -8.24035e-07       0.1756 
         -50      34.3725 -1.54266e-06 -8.29776e-07     0.175555 
         -50      34.7334 -1.53826e-06 -8.36888e-07      0.17551 
         -50      35.0962 -1.53461e-06  -8.3243e-07     0.175464 
         -50      35.4608 -1.52563e-06 -8.32327e-07     0.175419 
         -50      35.8272  -1.5145e-06 -8.39305e-07     0.175372 
         -50      36.1957 -1.50478e-06 -8.43803e-07     0.175326 
         -50       36.566 -1.49538e-06 -8.46255e-07     0.175279 
         -50      36.9381 -1.48577e-06 -8.47193e-07     0.175231 
         -50      37.3121 -1.47582e-06 -8.47182e-07     0.175184 
         -50      37.6882 -1.46563e-06 -8.46768e-07     0.175136 
         -50       38.066 -1.45545e-06 -8.46433e-07     0.175088 
         -50      38.4456  -1.4455e-06 -8.46555e-07      0.17504 
         -50      38.8272 -1.43595e-06 -8.47371e-07     0.174991 
         -50      39.2108 -1.42681e-06 -8.48955e-07     0.174942 
         -50      39.5961 -1.41795e-06   -8.512e-07     0.174893 
         -50      39.9833 -1.40912e-06 -8.53811e-07     0.174843 
         -50      40.3724 -1.39994e-06 -8.56311e-07     0.174794 
         -50      40.7635 -1.39007e-06 -8.58057e-07     0.174744 
         -50      41.1564 -1.37932e-06  -8.5827e-07     0.174693 
         -50      41.5511 -1.36786e-06 -8.56084e-07     0.174643 
         -50      41.9479 -1.35645e-06 -8.50602e-07     0.174592 
         -50      42.3464 -1.34754e-06 -8.42397e-07     0.174541 
         -50      42.7468 -1.34456e-06 -8.46788e-07      0.17449 
         -50      43.1491 -1.33694e-06 -8.49642e-07     0.174439 
         -50      43.5534 -1.32724e-06 -8.51039e-07     0.174387 
         -50      43.9595 -1.31715e-06 -8.51421e-07     0.174335 
         -50      44.3674 -1.30756e-06 -8.51565e-07     0.174284 
         -50      44.7772 -1.29872e-06 -8.52533e-07     0.174231 
         -50      45.1891 -1.29022e-06 -8.55616e-07     0.174179 
         -50      45.6027  -1.2812e-06 -8.62252e-07     0.174126 
         -50      46.0181 -1.27118e-06 -8.66673e-07     0.174074 
         -50      46.4355 -1.26151e-06 -8.62499e-07     0.174021 
         -50      46.8549 -1.25194e-06 -8.59175e-07     0.173968 
         -50       47.276 -1.24269e-06 -8.56676e-07     0.173915 
         -50       47.699 -1.23382e-06 -8.54902e-07     0.173861 
         -50      48.1241 -1.22535e-06 -8.53704e-07     0.173808 
         -50      48.5508 -1.21726e-06 -8.52897e-07     0.173754 
         -50      48.9795 -1.20949e-06 -8.52264e-07       0.1737 
         -50        49.41 -1.20192e-06 -8.51562e-07     0.173647 
         -50      49.8426 -1.19437e-06 -8.50523e-07     0.173593 
         -50      50.2769 -1.18653e-06 -8.48847e-07     0.173538 
         -50      50.7131 -1.17788e-06 -8.46187e-07     0.173484 
         -50      51.1512 -1.16759e-06  -8.4213e-07      0.17343 
         -50      51.5914 -1.15438e-06 -8.36171e-07     0.173376 
         -50      52.0332 -1.15003e-06 -8.33862e-07     0.173321 
         -50      52.4769 -1.14438e-06 -8.32408e-07     0.173266 
         -50      52.9225  -1.1356e-06 -8.30402e-07     0.173212 
         -50      53.3702 -1.12548e-06 -8.28045e-07     0.173157 
         -50      53.8196 -1.11523e-06 -8.25504e-07     0.173102 
         -50      54.2709 -1.10558e-06 -8.22908e-07     0.173047 
         -50      54.7242 -1.09687e-06 -8.20345e-07     0.172992 
         -50      55.1792 -1.08914e-06 -8.17863e-07     0.172937 
         -50      55.6362 -1.08219e-06 -8.15467e-07     0.172882 
         -50       56.095 -1.07571e-06 -8.13125e-07     0.172827 
         -50      56.5558 -1.06928e-06 -8.10766e-07     0.172772 
         -50      57.0184  -1.0625e-06  -8.0829e-07     0.172717 
         -50      57.4829 -1.05504e-06 -8.05573e-07     0.172662 
         -50      57.9492 -1.04664e-06 -8.02475e-07     0.172607 
         -50      58.4176 -1.03725e-06 -7.98847e-07     0.172552 
         -50      58.8877 -1.02697e-06 -7.94559e-07     0.172497 
         -50      59.3597 -1.01615e-06 -7.89495e-07     0.172441 
         -50      59.8336    -1.01e-06 -7.85919e-07     0.172386 
         -50      60.3096 -1.00517e-06 -7.82058e-07     0.172331 
         -50      60.7872 -1.00012e-06 -7.77865e-07     0.172276 
         -50      61.2667 -9.94689e-07 -7.73857e-07     0.172221 
         -50      61.7484 -9.88766e-07 -7.70317e-07     0.172166 
         -50      62.2317 -9.82212e-07 -7.67279e-07     0.172111 
         -50      62.7168 -9.74869e-07 -7.64514e-07     0.172056 
         -50      63.2039 -9.66563e-07 -7.61524e-07     0.172001 
         -50      63.6931 -9.56707e-07  -7.5973e-07     0.171946 
         -50      64.1839 -9.47794e-07 -7.57669e-07     0.171891 
         -50      64.6766  -9.4021e-07  -7.5397e-07     0.171837 
         -50      65.1712 -9.33303e-07 -7.49426e-07     0.171782 
         -50      65.6679  -9.2665e-07 -7.44587e-07     0.171727 
         -50      66.1663  -9.2002e-07 -7.39808e-07     0.171673 
         -50      66.6665 -9.13311e-07 -7.35274e-07     0.171619 
         -50      67.1687 -9.06525e-07 -7.31042e-07     0.171564 
         -50      67.6729 -8.99718e-07 -7.27071e-07      0.17151 
         -50      68.1788 -8.92982e-07 -7.23264e-07     0.171456 
         -50      68.6866 -8.86401e-07 -7.19485e-07     0.171402 
         -50      69.1963 -8.80033e-07 -7.15598e-07     0.171348 
         -50      69.7081 -8.73897e-07 -7.11483e-07     0.171294 
         -50      70.2215 -8.67964e-07 -7.07074e-07     0.171241 
         -50      70.7368 -8.62141e-07  -7.0236e-07     0.171187 
         -50      71.2543 -8.56285e-07 -6.97413e-07     0.171134 
         -50      71.7734 -8.50218e-07 -6.92403e-07      0.17108 
         -50      72.2943 -8.43734e-07 -6.87599e-07     0.171027 
         -50      72.8172  -8.3664e-07 -6.83376e-07     0.170974 
         -50      73.3422 -8.29081e-07 -6.80113e-07     0.170921 
         -50      73.8688 -8.26809e-07 -6.75201e-07     0.170869 
         -50      74.3973 -8.22203e-07 -6.70022e-07     0.170816 
         -50      74.9277 -8.15547e-07 -6.63757e-07     0.170764 
         -50      75.4602 -8.07742e-07 -6.55308e-07     0.170712 
         -50      75.9944 -8.02492e-07 -6.50975e-07      0.17066 
         -50      76.5305 -7.98022e-07 -6.48571e-07     0.170608 
         -50      77.0684 -7.92915e-07 -6.45046e-07     0.170556 
         -50      77.6084 -7.87333e-07 -6.40954e-07     0.170505 
         -50      78.1502  -7.8158e-07 -6.36767e-07     0.170454 
         -50      78.6937 -7.76059e-07 -6.32863e-07     0.170403 
         -50      79.2394 -7.71247e-07 -6.29515e-07     0.170352 
         -50      79.7868 -7.66392e-07 -6.26354e-07     0.170301 
         -50      80.3361 -7.58291e-07  -6.2138e-07     0.170251 
         -50      80.8872 -7.51445e-07 -6.16239e-07     0.170201 
         -50      81.4404 -7.45628e-07 -6.10969e-07     0.170151 
         -50      81.9953  -7.4061e-07 -6.05604e-07     0.170101 
         -50      82.5521 -7.36162e-07 -6.00158e-07     0.170052 
         -50      83.1108 -7.32078e-07 -5.94648e-07     0.170002 
         -50      83.6715 -7.28175e-07 -5.89086e-07     0.169953 
         -50       84.234 -7.24314e-07 -5.83493e-07     0.169905 
         -50      84.7983  -7.2039e-07 -5.77886e-07     0.169856 
         -50      85.3645 -7.16342e-07 -5.72287e-07     0.169808 
         -50      85.9328 -7.12149e-07 -5.66719e-07      0.16976 
         -50      86.5028 -7.07828e-07 -5.61206e-07     0.169712 
         -50      87.0747  -7.0342e-07  -5.5576e-07     0.169665 
         -50      87.6486 -6.98981e-07 -5.50377e-07     0.169618 
         -50      88.2243 -6.94568e-07 -5.45038e-07     0.169571 
         -50      88.8018 -6.90214e-07 -5.39681e-07     0.169524 
         -50      89.3812 -6.85902e-07 -5.34199e-07     0.169478 
         -50      89.9627 -6.81538e-07 -5.28419e-07     0.169432 
         -50      90.5458 -6.76918e-07 -5.22096e-07     0.169386 
         -50      91.1309 -6.72388e-07 -5.15264e-07      0.16934 
         -50      91.7178 -6.69763e-07 -5.10158e-07     0.169295 
         -50      92.3069 -6.66311e-07 -5.05669e-07      0.16925 
         -50      92.8976 -6.62422e-07 -5.01407e-07     0.169206 
         -50      93.4901 -6.58376e-07 -4.97037e-07     0.169162 
         -50      94.0846 -6.54364e-07 -4.92305e-07     0.169118 
         -50      94.6812   -6.505e-07 -4.87054e-07     0.169074 
         -50      95.2794 -6.46841e-07 -4.81239e-07     0.169031 
         -50      95.8796 -6.43389e-07 -4.74936e-07     0.168988 
         -50      96.4818 -6.40109e-07 -4.68359e-07     0.168945 
         -50      97.0857 -6.36942e-07 -4.61883e-07     0.168903 
         -50      97.6915 -6.33807e-07  -4.5604e-07     0.168861 
         -50      98.2991 -6.30973e-07 -4.51318e-07     0.168819 
         -50      98.9089 -6.28608e-07 -4.46414e-07     0.168778 
         -50      99.5203 -6.25743e-07 -4.41188e-07     0.168737 
         -50      100.134 -6.22519e-07 -4.35735e-07     0.168697 
         -50      100.749 -6.19048e-07 -4.30138e-07     0.168657 
         -50      101.366 -6.15422e-07 -4.24457e-07     0.168617 
         -50      101.985 -6.11716e-07 -4.18743e-07     0.168578 
         -50      102.606 -6.07985e-07 -4.13026e-07     0.168539 
         -50      103.229  -6.0427e-07 -4.07326e-07       0.1685 
         -50      103.854 -6.00603e-07 -4.01649e-07     0.168462 
         -50       104.48 -5.97011e-07 -3.95999e-07     0.168424 
         -50      105.108 -5.93508e-07 -3.90364e-07     0.168386 
         -50      105.739 -5.90108e-07 -3.84731e-07     0.168349 
         -50      106.371 -5.86821e-07 -3.79079e-07     0.168312 
         -50      107.005 -5.83657e-07 -3.73392e-07     0.168276 
         -50      107.641 -5.80624e-07 -3.67645e-07      0.16824 
         -50      108.279 -5.77731e-07 -3.61818e-07     0.168204 
         -50      108.919 -5.74992e-07 -3.55898e-07     0.168169 
         -50       109.56 -5.72415e-07  -3.4987e-07     0.168134 
         -50      110.204 -5.70015e-07 -3.43729e-07       0.1681 
         -50      110.849 -5.67802e-07 -3.37475e-07     0.168066 
         -50      111.497  -5.6579e-07 -3.31128e-07     0.168033 
         -50      112.146 -5.64745e-07 -3.24818e-07        0.168 
         -50      112.797 -5.62753e-07 -3.18696e-07     0.167968 
         -50       113.45  -5.5962e-07 -3.12613e-07     0.167935 
         -50      114.105 -5.56407e-07 -3.06542e-07     0.167903 
         -50      114.761 -5.53694e-07 -3.00494e-07     0.167872 
         -50       115.42 -5.51702e-07 -2.94515e-07      0.16784 
         -50      116.081 -5.50405e-07 -2.88661e-07      0.16781 
         -50      116.743 -5.49611e-07 -2.82992e-07      0.16778 
         -50      117.407 -5.49046e-07 -2.77542e-07     0.167751 
         -50      118.073  -5.4841e-07 -2.72315e-07     0.167722 
         -50      118.741 -5.47418e-07 -2.67274e-07     0.167694 
         -50      119.411 -5.45825e-07 -2.62319e-07     0.167667 
         -50      120.083 -5.43429e-07 -2.57284e-07      0.16764 
         -50      120.757 -5.40049e-07 -2.51922e-07     0.167613 
         -50      121.432 -5.35494e-07 -2.45907e-07     0.167587 
         -50       122.11 -5.29486e-07 -2.38817e-07      0.16756 
         -50      122.789 -5.21578e-07 -2.30132e-07     0.167534 
         -50       123.47 -5.28687e-07 -2.26099e-07     0.167509 
         -50      124.153 -5.31587e-07 -2.21199e-07     0.167485 
         -50      124.838 -5.31353e-07 -2.15625e-07     0.167462 
         -50      125.525 -5.28944e-07 -2.09569e-07     0.167439 
         -50      126.214 -5.25154e-07 -2.03193e-07     0.167417 
         -50      126.905 -5.20631e-07 -1.96641e-07     0.167395 
         -50      127.597 -5.15889e-07 -1.90023e-07     0.167373 
         -50      128.292 -5.11319e-07 -1.83427e-07     0.167352 
         -50      128.988 -5.07211e-07 -1.76924e-07     0.167332 
         -50      129.686 -5.03754e-07 -1.70559e-07     0.167311 
         -50      130.386 -5.01053e-07 -1.64364e-07     0.167291 
         -50      131.088 -4.99135e-07 -1.58356e-07     0.167271 
         -50      131.792 -4.97961e-07 -1.52554e-07     0.167252 
         -50      132.497 -4.97426e-07 -1.46967e-07     0.167232 
         -50      133.205 -4.97366e-07 -1.41613e-07     0.167213 
         -50      133.915 -4.97561e-07 -1.36522e-07     0.167194 
         -50      134.626 -4.98299e-07 -1.31053e-07     0.167175 
         -50      135.339 -5.05314e-07 -1.23847e-07      0.16716 
         -50      136.054 -5.16431e-07 -1.16579e-07     0.167144 
         -50      136.771  -5.2746e-07  -1.0933e-07     0.167128 
         -50       137.49  -5.3507e-07 -1.02169e-07     0.167112 
         -50      138.211 -5.37073e-07 -9.51388e-08     0.167096 
         -50      138.934 -5.32546e-07 -8.82643e-08     0.167081 
         -50      139.658 -5.21888e-07 -8.15642e-08     0.167067 
         -50      140.385 -5.06737e-07 -7.50363e-08     0.167054 
         -50      141.113 -4.89774e-07 -6.86712e-08     0.167041 
         -50      141.843 -4.74403e-07 -6.24493e-08      0.16703 
         -50      142.575 -4.64318e-07 -5.63538e-08     0.167019 
         -50      143.309  -4.6287e-07 -5.03582e-08     0.167009 
         -50      144.045  -4.7235e-07 -4.44396e-08     0.166999 
         -50      144.783   -4.931e-07 -3.85768e-08     0.166991 
         -50      145.523 -5.22416e-07 -3.27626e-08     0.166983 
         -50      146.264  -5.5337e-07 -2.69937e-08     0.166976 
         -50      147.007 -5.73381e-07 -2.12834e-08     0.166969 
         -50      147.753  -5.6262e-07 -1.56606e-08     0.166964 
         -50        148.5  -4.9225e-07 -1.01829e-08     0.166959 
         -50      149.249  -3.2244e-07 -4.92696e-09     0.166955 
         -50          150 -2.90141e-21 -3.25669e-23     0.166952 
         -25            0           -0           -0     0.171274 
         -25     0.000942 -3.73006e-07 -3.62683e-12     0.171274 
         -25     0.003768 -1.15908e-06 -1.80311e-11     0.171274 
         -25     0.008478 -1.69912e-06 -4.91002e-11     0.171274 
         -25     0.015075 -1.68615e-06 -9.46852e-11     0.171274 
         -25     0.023553 -1.45341e-06 -1.36497e-10     0.171274 
         -25     0.033916 -1.46669e-06  -1.4051e-10     0.171274 
         -25     0.046163 -1.59104e-06 -6.29015e-11     0.171274 
         -25       0.0603 -1.43454e-06  1.46954e-10     0.171274 
         -25     0.076315 -1.54267e-06  5.39748e-10     0.171274 
         -25     0.094215  -1.4535e-06   1.1564e-09     0.171274 
         -25     0.113999   -1.456e-06  2.06948e-09     0.171274 
         -25     0.135675 -1.44569e-06  3.32295e-09     0.171274 
         -25     0.159228 -1.45513e-06  4.95799e-09     0.171274 
         -25     0.184664 -1.46796e-06  7.00222e-09     0.171274 
         -25     0.211985 -1.47805e-06  9.47068e-09     0.171274 
         -25     0.241201 -1.50446e-06  1.23652e-08     0.171274 
         -25      0.27229 -1.52286e-06  1.56751e-08     0.171274 
         -25     0.305263 -1.54672e-06  1.93951e-08     0.171274 
         -25     0.340135 -1.56945e-06  2.35187e-08     0.171274 
         -25     0.376877 -1.59106e-06  2.80448e-08     0.171274 
         -25     0.415503 -1.61074e-06   3.2952e-08     0.171274 
         -25     0.456013 -1.62746e-06  3.81549e-08     0.171274 
         -25     0.498424 -1.64077e-06  4.34921e-08     0.171274 
         -25     0.542703 -1.65105e-06  4.87589e-08     0.171274 
         -25     0.588866 -1.65887e-06  5.38775e-08     0.171274 
         -25     0.636912 -1.66405e-06  5.89424e-08     0.171274 
         -25     0.686864 -1.66802e-06  6.40591e-08     0.171274 
         -25     0.738679 -1.67137e-06  6.92274e-08     0.171274 
         -25     0.792379 -1.67484e-06  7.43297e-08     0.171273 
         -25     0.847962 -1.67881e-06  7.92552e-08     0.171273 
         -25     0.905453 -1.68339e-06  8.39097e-08     0.171273 
         -25     0.964806 -1.68837e-06  8.82123e-08     0.171273 
         -25      1.02604  -1.6934e-06  9.21103e-08     0.171273 
         -25      1.08919 -1.69801e-06  9.55768e-08     0.171273 
         -25      1.15419 -1.70177e-06  9.86091e-08     0.171273 
         -25      1.22108 -1.70442e-06  1.01238e-07     0.171272 
         -25      1.28985 -1.70594e-06  1.03524e-07     0.171272 
         -25      1.36054 -1.70656e-06  1.05554e-07     0.171272 
         -25      1.43308 -1.70672e-06  1.07443e-07     0.171272 
         -25      1.50751 -1.70655e-06  1.09333e-07     0.171272 
         -25      1.58382 -1.69876e-06  1.10376e-07     0.171271 
         -25      1.66204 -1.69798e-06  1.09879e-07     0.171271 
         -25      1.74212 -1.70013e-06  1.08679e-07     0.171271 
         -25      1.82409 -1.70219e-06  1.07318e-07      0.17127 
         -25      1.90793 -1.70226e-06  1.06058e-07      0.17127 
         -25       1.9937  -1.6994e-06  1.04895e-07      0.17127 
         -25      2.08131 -1.69365e-06  1.03604e-07     0.171269 
         -25      2.17081 -1.68576e-06  1.01785e-07     0.171269 
         -25      2.26223 -1.67706e-06  9.89281e-08     0.171268 
         -25       2.3555 -1.66919e-06   9.4491e-08     0.171268 
         -25      2.45065  -1.6638e-06  8.79738e-08     0.171267 
         -25      2.54769 -1.66234e-06  7.90056e-08     0.171267 