Variables = x, y, u, v, p

Zone, I=3600, F=POINT
         -50            0            0            0     0.247434 
         -50     0.000942  1.46208e-07   1.5453e-11     0.247434 
         -50     0.003768  4.70037e-07  6.27707e-11     0.247434 
         -50     0.008478  7.34548e-07   1.4621e-10     0.247434 
         -50     0.015075   8.0133e-07  2.75391e-10     0.247434 
         -50     0.023553   7.4318e-07  4.63391e-10     0.247434 
         -50     0.033916   7.1363e-07  7.20459e-10     0.247434 
         -50     0.046163  7.16749e-07  1.04755e-09     0.247434 
         -50       0.0603  6.53403e-07  1.43927e-09     0.247434 
         -50     0.076315  6.49995e-07  1.88422e-09     0.247434 
         -50     0.094215  6.03904e-07    2.347e-09     0.247434 
         -50     0.113999  5.77981e-07  2.80701e-09     0.247434 
         -50     0.135675  5.50741e-07  3.21642e-09     0.247434 
         -50     0.159228  5.29414e-07   3.5449e-09     0.247434 
         -50     0.184664  5.10692e-07  3.76735e-09     0.247434 
         -50     0.211985  4.93232e-07  3.85925e-09     0.247434 
         -50     0.241201  4.80812e-07  3.83252e-09     0.247434 
         -50      0.27229  4.68101e-07   3.6533e-09     0.247434 
         -50     0.305263  4.57755e-07  3.41545e-09     0.247434 
         -50     0.340135  4.48126e-07  3.29864e-09     0.247434 
         -50     0.376877  4.39223e-07  3.10646e-09     0.247434 
         -50     0.415503  4.31099e-07  2.52176e-09     0.247433 
         -50     0.456013   4.2394e-07  1.41727e-09     0.247433 
         -50     0.498424  4.18122e-07  7.47173e-11     0.247433 
         -50     0.542703   4.1426e-07  -9.5943e-10     0.247433 
         -50     0.588866  4.13147e-07 -1.82743e-09     0.247433 
         -50     0.636912  4.15212e-07 -1.10704e-09     0.247433 
         -50     0.686864  4.21326e-07  1.52502e-09     0.247432 
         -50     0.738679   4.3213e-07  3.44115e-09     0.247432 
         -50     0.792379  4.47562e-07   4.4263e-09     0.247432 
         -50     0.847962  4.67188e-07  4.61351e-09     0.247431 
         -50     0.905453  4.90305e-07  4.39338e-09     0.247431 
         -50     0.964806  5.16022e-07  4.28212e-09      0.24743 
         -50      1.02604  5.43469e-07  4.76175e-09      0.24743 
         -50      1.08919  5.71933e-07  6.11971e-09     0.247429 
         -50      1.15419  6.00946e-07  8.31877e-09     0.247429 
         -50      1.22108  6.30417e-07  1.09589e-08     0.247428 
         -50      1.28985  6.60525e-07  1.33909e-08     0.247428 
         -50      1.36054  6.91463e-07  1.50809e-08     0.247427 
         -50      1.43308  7.22811e-07  1.63406e-08     0.247426 
         -50      1.50751  7.52644e-07  1.95594e-08     0.247425 
         -50      1.58382  7.89066e-07  2.25647e-08     0.247424 
         -50      1.66204  8.31569e-07  2.33268e-08     0.247423 
         -50      1.74212  8.75451e-07  2.27958e-08     0.247422 
         -50      1.82409  9.17046e-07  2.17775e-08     0.247421 
         -50      1.90793  9.53688e-07   2.0913e-08      0.24742 
         -50       1.9937  9.83707e-07  2.06673e-08     0.247418 
         -50      2.08131  1.00633e-06  2.13232e-08     0.247417 
         -50      2.17081  1.02163e-06  2.29812e-08     0.247415 
         -50      2.26223  1.03035e-06   2.5571e-08     0.247414 
         -50       2.3555  1.03368e-06  2.88638e-08     0.247412 
         -50      2.45065  1.03308e-06   3.2505e-08      0.24741 
         -50      2.54769  1.03003e-06  3.60458e-08     0.247408 
         -50      2.64665  1.02583e-06  3.89894e-08     0.247406 
         -50      2.74746  1.02134e-06  4.08391e-08     0.247404 
         -50      2.85014  1.01688e-06  4.11673e-08     0.247402 
         -50      2.95472  1.01212e-06  3.96774e-08       0.2474 
         -50      3.06122  1.00618e-06  3.62769e-08     0.247397 
         -50      3.16956   9.9785e-07  3.11598e-08     0.247395 
         -50      3.27979  9.86054e-07  2.48762e-08     0.247392 
         -50       3.3919  9.70637e-07  1.84105e-08     0.247389 
         -50      3.50594  9.53511e-07  1.32476e-08     0.247386 
         -50      3.62181  9.40314e-07  1.14367e-08     0.247382 
         -50      3.73958  9.42574e-07  1.56178e-08     0.247379 
         -50      3.85927  9.37639e-07  1.56972e-08     0.247376 
         -50       3.9808  9.27568e-07  1.71004e-08     0.247372 
         -50      4.10422  9.16832e-07  2.00155e-08     0.247368 
         -50      4.22952  9.08716e-07  2.74633e-08     0.247364 
         -50      4.35675  9.02151e-07  3.82458e-08      0.24736 
         -50      4.48582  8.96865e-07  5.05631e-08     0.247355 
         -50      4.61677  8.92882e-07  6.25046e-08      0.24735 
         -50      4.74961  8.90147e-07  7.24597e-08     0.247346 
         -50      4.88438  8.88292e-07  7.94812e-08     0.247341 
         -50      5.02099  8.86638e-07   8.3522e-08     0.247335 
         -50      5.15948  8.84494e-07  8.55408e-08      0.24733 
         -50      5.29985  8.81855e-07  8.73657e-08     0.247324 
         -50      5.44217  8.80584e-07  9.13017e-08     0.247318 
         -50      5.58631   8.7664e-07  8.26726e-08     0.247312 
         -50      5.73233  8.70943e-07  8.16881e-08     0.247306 
         -50      5.88024  8.64397e-07  8.49636e-08     0.247299 
         -50       6.0301  8.56986e-07  8.89551e-08     0.247292 
         -50      6.18178  8.48847e-07  9.11871e-08     0.247285 
         -50      6.33534  8.40669e-07  9.05885e-08     0.247277 
         -50      6.49085  8.33479e-07  8.78486e-08      0.24727 
         -50      6.64818  8.27601e-07  8.58362e-08     0.247262 
         -50      6.80739  8.19753e-07  8.42669e-08     0.247253 
         -50      6.96849  8.12852e-07  8.04254e-08     0.247245 
         -50      7.13154  8.18144e-07  7.77845e-08     0.247236 
         -50      7.29641  8.15182e-07  8.14542e-08     0.247227 
         -50      7.46316  8.10818e-07  8.63698e-08     0.247217 
         -50       7.6318  8.07379e-07  8.65277e-08     0.247208 
         -50      7.80239  8.03644e-07  8.40993e-08     0.247198 
         -50      7.97479  7.98538e-07  8.28176e-08     0.247187 
         -50      8.14908  7.91695e-07  8.54059e-08     0.247176 
         -50      8.32526   7.8374e-07  9.19797e-08     0.247165 
         -50      8.50338  7.76174e-07  9.96954e-08     0.247154 
         -50      8.68333  7.70806e-07  1.03954e-07     0.247142 
         -50      8.86515  7.68817e-07  9.72611e-08      0.24713 
         -50      9.04894  7.65188e-07   8.7415e-08     0.247118 
         -50      9.23453  7.52214e-07  1.14027e-07     0.247105 
         -50      9.42201  7.67282e-07  1.02455e-07     0.247092 
         -50      9.61137  7.66303e-07  9.23821e-08     0.247078 
         -50      9.80269  7.59741e-07  9.86369e-08     0.247064 
         -50      9.99583  7.53482e-07  1.06582e-07      0.24705 
         -50      10.1908  7.49443e-07  1.10464e-07     0.247035 
         -50      10.3877  7.47146e-07  1.10155e-07      0.24702 
         -50      10.5866    7.451e-07  1.08277e-07     0.247004 
         -50      10.7873  7.41941e-07  1.07818e-07     0.246988 
         -50      10.9898  7.37222e-07  1.10422e-07     0.246972 
         -50      11.1943    7.318e-07  1.15524e-07     0.246955 
         -50      11.4007  7.27689e-07  1.20551e-07     0.246937 
         -50      11.6089  7.27293e-07   1.2237e-07      0.24692 
         -50       11.819  7.31881e-07   1.2029e-07     0.246901 
         -50       12.031  7.31809e-07  1.13956e-07     0.246883 
         -50      12.2449  7.24992e-07  1.11803e-07     0.246864 
         -50      12.4606  7.19999e-07   1.1385e-07     0.246844 
         -50      12.6782  7.18566e-07    1.128e-07     0.246824 
         -50      12.8978  7.19182e-07  1.02818e-07     0.246804 
         -50      13.1192  7.26464e-07  1.00923e-07     0.246783 
         -50      13.3425  7.23805e-07   1.1124e-07     0.246761 
         -50      13.5677  7.13123e-07  1.22908e-07     0.246739 
         -50      13.7948  7.02145e-07  1.34327e-07     0.246717 
         -50      14.0237   6.9487e-07  1.44337e-07     0.246694 
         -50      14.2546  6.92443e-07  1.52123e-07      0.24667 
         -50      14.4873   6.9407e-07  1.57156e-07     0.246647 
         -50      14.7219  6.97872e-07  1.59256e-07     0.246622 
         -50      14.9584  7.01679e-07  1.58773e-07     0.246597 
         -50      15.1968  7.03763e-07  1.56912e-07     0.246572 
         -50      15.4371  7.03454e-07  1.56207e-07     0.246546 
         -50      15.6792  7.01636e-07  1.61192e-07     0.246519 
         -50      15.9232  7.01072e-07   1.7927e-07     0.246492 
         -50      16.1691  6.89355e-07  1.81109e-07     0.246464 
         -50       16.417   6.8031e-07  1.84886e-07     0.246436 
         -50      16.6666  6.77361e-07  1.91619e-07     0.246407 
         -50      16.9182  6.78598e-07  1.97153e-07     0.246378 
         -50      17.1716   6.8151e-07  2.00545e-07     0.246348 
         -50       17.427  6.83593e-07  2.03513e-07     0.246318 
         -50      17.6842  6.73617e-07  2.08613e-07     0.246287 
         -50      17.9433  6.71166e-07  2.08125e-07     0.246255 
         -50      18.2042   6.7557e-07  2.06977e-07     0.246223 
         -50      18.4672  6.79783e-07   2.0861e-07     0.246191 
         -50      18.7319  6.79212e-07  2.13219e-07     0.246157 
         -50      18.9985  6.72229e-07  2.18944e-07     0.246124 
         -50       19.267  6.60286e-07  2.23653e-07     0.246089 
         -50      19.5375   6.4757e-07  2.27386e-07     0.246054 
         -50      19.8098  6.40945e-07   2.3468e-07     0.246019 
         -50       20.084  6.46221e-07  2.38481e-07     0.245983 
         -50      20.3601  6.49244e-07  2.42705e-07     0.245946 
         -50       20.638  6.49812e-07  2.46844e-07     0.245909 
         -50      20.9178  6.48234e-07  2.50529e-07     0.245871 
         -50      21.1995  6.45133e-07    2.535e-07     0.245832 
         -50      21.4832  6.41284e-07  2.55605e-07     0.245793 
         -50      21.7687   6.3747e-07  2.56776e-07     0.245754 
         -50       22.056  6.34345e-07  2.57024e-07     0.245714 
         -50      22.3452  6.32341e-07  2.56416e-07     0.245673 
         -50      22.6365  6.31603e-07  2.55064e-07     0.245631 
         -50      22.9295  6.31958e-07   2.5311e-07     0.245589 
         -50      23.2243  6.32928e-07  2.50703e-07     0.245547 
         -50      23.5211  6.33801e-07  2.47993e-07     0.245504 
         -50      23.8199  6.33746e-07  2.45103e-07      0.24546 
         -50      24.1204  6.31997e-07  2.42126e-07     0.245416 
         -50      24.4228  6.28114e-07    2.391e-07     0.245371 
         -50      24.7272  6.22304e-07  2.35995e-07     0.245325 
         -50      25.0334  6.15855e-07  2.32703e-07     0.245279 
         -50      25.3415  6.11634e-07  2.29021e-07     0.245232 
         -50      25.6514  6.14176e-07  2.27009e-07     0.245185 
         -50      25.9634  6.19309e-07   2.3048e-07     0.245137 
         -50      26.2771  6.16856e-07  2.32965e-07     0.245089 
         -50      26.5927  6.17146e-07  2.39688e-07      0.24504 
         -50      26.9102   6.1299e-07  2.50257e-07      0.24499 
         -50      27.2297  6.05404e-07  2.60701e-07      0.24494 
         -50       27.551  5.98483e-07  2.68955e-07     0.244889 
         -50      27.8741  5.92574e-07  2.74825e-07     0.244838 
         -50      28.1991  5.87619e-07  2.78251e-07     0.244786 
         -50      28.5262  5.83605e-07  2.79474e-07     0.244734 
         -50       28.855  5.80522e-07  2.78942e-07     0.244681 
         -50      29.1856  5.78321e-07  2.77224e-07     0.244627 
         -50      29.5183  5.76887e-07  2.74932e-07     0.244573 
         -50      29.8528  5.76024e-07  2.72655e-07     0.244519 
         -50      30.1891  5.75449e-07  2.70897e-07     0.244464 
         -50      30.5273    5.748e-07  2.70034e-07     0.244408 
         -50      30.8676  5.73666e-07  2.70286e-07     0.244352 
         -50      31.2096   5.7163e-07  2.71703e-07     0.244295 
         -50      31.5534  5.68332e-07  2.74167e-07     0.244238 
         -50      31.8992  5.63552e-07  2.77426e-07      0.24418 
         -50      32.2469  5.57322e-07   2.8114e-07     0.244122 
         -50      32.5965  5.50069e-07  2.84955e-07     0.244063 
         -50      32.9479  5.42764e-07  2.88614e-07     0.244004 
         -50      33.3012  5.37128e-07  2.92093e-07     0.243944 
         -50      33.6565  5.35857e-07   2.9577e-07     0.243884 
         -50      34.0135   5.4289e-07   3.0063e-07     0.243823 
         -50      34.3725  5.41484e-07   2.9631e-07     0.243762 
         -50      34.7334  5.36224e-07  2.93611e-07       0.2437 
         -50      35.0962  5.35101e-07  2.94033e-07     0.243638 
         -50      35.4608  5.30582e-07  2.90611e-07     0.243575 
         -50      35.8272   5.2332e-07  2.87888e-07     0.243512 
         -50      36.1957  5.18366e-07  2.87279e-07     0.243448 
         -50       36.566  5.15201e-07  2.87449e-07     0.243384 
         -50      36.9381  5.13226e-07  2.87571e-07      0.24332 
         -50      37.3121  5.11841e-07  2.87228e-07     0.243255 
         -50      37.6882  5.10505e-07  2.86315e-07      0.24319 
         -50       38.066   5.0878e-07  2.84958e-07     0.243124 
         -50      38.4456  5.06369e-07  2.83423e-07     0.243058 
         -50      38.8272  5.03134e-07  2.82044e-07     0.242992 
         -50      39.2108  4.99102e-07  2.81159e-07     0.242925 
         -50      39.5961  4.94455e-07   2.8105e-07     0.242858 
         -50      39.9833  4.89491e-07  2.81899e-07      0.24279 
         -50      40.3724  4.84571e-07  2.83756e-07     0.242722 
         -50      40.7635  4.80042e-07   2.8652e-07     0.242654 
         -50      41.1564  4.76136e-07  2.89937e-07     0.242585 
         -50      41.5511  4.72829e-07  2.93615e-07     0.242516 
         -50      41.9479  4.69683e-07  2.97062e-07     0.242447 
         -50      42.3464  4.66697e-07  2.99038e-07     0.242377 
         -50      42.7468  4.70511e-07  2.93695e-07     0.242307 
         -50      43.1491  4.70059e-07   2.9107e-07     0.242236 
         -50      43.5534  4.68086e-07  2.91926e-07     0.242166 
         -50      43.9595  4.66053e-07  2.95919e-07     0.242095 
         -50      44.3674  4.64335e-07  3.01775e-07     0.242024 
         -50      44.7772  4.62444e-07  3.07489e-07     0.241952 
         -50      45.1891  4.59262e-07  3.10532e-07      0.24188 
         -50      45.6027  4.53304e-07  3.08087e-07     0.241808 
         -50      46.0181  4.44627e-07   3.0142e-07     0.241736 
         -50      46.4355  4.38618e-07   2.9776e-07     0.241663 
         -50      46.8549  4.34494e-07  2.94197e-07      0.24159 
         -50       47.276  4.31512e-07  2.91091e-07     0.241517 
         -50       47.699  4.29026e-07  2.88601e-07     0.241444 
         -50      48.1241   4.2657e-07  2.86749e-07     0.241371 
         -50      48.5508  4.23905e-07  2.85461e-07     0.241297 
         -50      48.9795  4.21006e-07  2.84613e-07     0.241223 
         -50        49.41   4.1802e-07  2.84058e-07     0.241149 
         -50      49.8426  4.15171e-07  2.83666e-07     0.241075 
         -50      50.2769  4.12613e-07  2.83337e-07        0.241 
         -50      50.7131  4.10216e-07  2.83018e-07     0.240926 
         -50      51.1512  4.07304e-07  2.82705e-07     0.240851 
         -50      51.5914  4.02311e-07  2.82439e-07     0.240776 
         -50      52.0332  4.01267e-07  2.79694e-07     0.240701 
         -50      52.4769  4.00932e-07  2.77019e-07     0.240626 
         -50      52.9225  3.99438e-07  2.75295e-07     0.240551 
         -50      53.3702  3.97017e-07  2.74438e-07     0.240475 
         -50      53.8196  3.93894e-07  2.74279e-07       0.2404 
         -50      54.2709  3.90283e-07  2.74576e-07     0.240324 
         -50      54.7242  3.86377e-07  2.75044e-07     0.240248 
         -50      55.1792  3.82354e-07  2.75383e-07     0.240173 
         -50      55.6362  3.78369e-07  2.75312e-07     0.240097 
         -50       56.095  3.74553e-07  2.74611e-07     0.240021 
         -50      56.5558  3.71022e-07  2.73169e-07     0.239945 
         -50      57.0184  3.67882e-07  2.71038e-07     0.239869 
         -50      57.4829  3.65227e-07  2.68495e-07     0.239793 
         -50      57.9492  3.63159e-07  2.66113e-07     0.239717 
         -50      58.4176  3.61796e-07  2.64837e-07     0.239641 
         -50      58.8877  3.61289e-07  2.66074e-07     0.239565 
         -50      59.3597   3.6184e-07  2.71785e-07     0.239489 
         -50      59.8336  3.60083e-07  2.67181e-07     0.239413 
         -50      60.3096  3.56148e-07  2.62511e-07     0.239337 
         -50      60.7872  3.51576e-07  2.60647e-07     0.239261 
         -50      61.2667  3.47069e-07  2.59815e-07     0.239185 
         -50      61.7484  3.43144e-07   2.5858e-07     0.239109 
         -50      62.2317  3.40101e-07   2.5584e-07     0.239033 
         -50      62.7168  3.37997e-07  2.50815e-07     0.238957 
         -50      63.2039   3.3664e-07  2.43031e-07     0.238882 
         -50      63.6931   3.3694e-07  2.39594e-07     0.238806 
         -50      64.1839  3.36304e-07  2.42018e-07      0.23873 
         -50      64.6766  3.33725e-07  2.44004e-07     0.238655 
         -50      65.1712  3.30073e-07   2.4533e-07     0.238579 
         -50      65.6679  3.26013e-07   2.4594e-07     0.238504 
         -50      66.1663  3.22022e-07  2.45894e-07     0.238429 
         -50      66.6665  3.18401e-07  2.45318e-07     0.238354 
         -50      67.1687  3.15303e-07  2.44368e-07     0.238279 
         -50      67.6729  3.12754e-07  2.43196e-07     0.238204 
         -50      68.1788  3.10686e-07  2.41929e-07     0.238129 
         -50      68.6866  3.08961e-07  2.40652e-07     0.238055 
         -50      69.1963   3.0741e-07  2.39401e-07      0.23798 
         -50      69.7081   3.0587e-07  2.38174e-07     0.237906 
         -50      70.2215  3.04228e-07  2.36945e-07     0.237832 
         -50      70.7368  3.02464e-07  2.35694e-07     0.237758 
         -50      71.2543  3.00702e-07  2.34446e-07     0.237684 
         -50      71.7734  2.99272e-07  2.33336e-07     0.237611 
         -50      72.2943  2.98757e-07  2.32672e-07     0.237538 
         -50      72.8172  3.00068e-07  2.33025e-07     0.237465 
         -50      73.3422   3.0364e-07  2.34998e-07     0.237392 
         -50      73.8688  2.91983e-07  2.30774e-07     0.237319 
         -50      74.3973  2.85438e-07  2.27345e-07     0.237247 
         -50      74.9277  2.82398e-07  2.24774e-07     0.237174 
         -50      75.4602  2.81083e-07  2.23775e-07     0.237103 
         -50      75.9944  2.79156e-07  2.21639e-07     0.237031 
         -50      76.5305  2.78059e-07  2.18522e-07     0.236959 
         -50      77.0684  2.77849e-07  2.15912e-07     0.236888 
         -50      77.6084  2.77967e-07  2.13687e-07     0.236817 
         -50      78.1502  2.77918e-07  2.11804e-07     0.236747 
         -50      78.6937    2.773e-07  2.10253e-07     0.236676 
         -50      79.2394  2.75818e-07  2.09041e-07     0.236606 
         -50      79.7868  2.72916e-07  2.08346e-07     0.236537 
         -50      80.3361  2.68909e-07  2.08078e-07     0.236467 
         -50      80.8872  2.65933e-07  2.07286e-07     0.236398 
         -50      81.4404  2.63715e-07  2.06083e-07     0.236329 
         -50      81.9953  2.62016e-07  2.04568e-07     0.236261 
         -50      82.5521  2.60631e-07  2.02821e-07     0.236193 
         -50      83.1108  2.59388e-07  2.00911e-07     0.236125 
         -50      83.6715  2.58156e-07  1.98896e-07     0.236058 
         -50       84.234  2.56838e-07  1.96826e-07     0.235991 
         -50      84.7983  2.55371e-07   1.9474e-07     0.235924 
         -50      85.3645  2.53727e-07  1.92671e-07     0.235858 
         -50      85.9328  2.51907e-07  1.90644e-07     0.235792 
         -50      86.5028  2.49939e-07  1.88679e-07     0.235726 
         -50      87.0747  2.47869e-07   1.8678e-07     0.235661 
         -50      87.6486  2.45754e-07  1.84946e-07     0.235596 
         -50      88.2243  2.43663e-07  1.83161e-07     0.235531 
         -50      88.8018  2.41653e-07  1.81391e-07     0.235467 
         -50      89.3812  2.39768e-07  1.79581e-07     0.235404 
         -50      89.9627  2.38025e-07  1.77652e-07     0.235341 
         -50      90.5458  2.36397e-07  1.75493e-07     0.235278 
         -50      91.1309  2.35117e-07  1.73113e-07     0.235215 
         -50      91.7178  2.35245e-07   1.7075e-07     0.235153 
         -50      92.3069  2.35228e-07  1.67927e-07     0.235092 
         -50      92.8976    2.348e-07  1.65008e-07     0.235031 
         -50      93.4901  2.33835e-07  1.62296e-07      0.23497 
         -50      94.0846  2.32328e-07  1.60021e-07      0.23491 
         -50      94.6812  2.30368e-07  1.58325e-07      0.23485 
         -50      95.2794  2.28118e-07  1.57248e-07     0.234791 
         -50      95.8796  2.25789e-07  1.56707e-07     0.234733 
         -50      96.4818  2.23621e-07  1.56484e-07     0.234674 
         -50      97.0857  2.21866e-07  1.56209e-07     0.234617 
         -50      97.6915  2.20762e-07  1.55337e-07     0.234559 
         -50      98.2991  2.20196e-07  1.53583e-07     0.234503 
         -50      98.9089  2.19071e-07  1.52177e-07     0.234446 
         -50      99.5203  2.17884e-07  1.50594e-07     0.234391 
         -50      100.134  2.16706e-07  1.48833e-07     0.234335 
         -50      100.749  2.15589e-07  1.46905e-07     0.234281 
         -50      101.366   2.1456e-07  1.44826e-07     0.234226 
         -50      101.985  2.13626e-07  1.42625e-07     0.234173 
         -50      102.606  2.12772e-07  1.40333e-07      0.23412 
         -50      103.229  2.11966e-07  1.37993e-07     0.234067 
         -50      103.854  2.11158e-07  1.35648e-07     0.234015 
         -50       104.48  2.10295e-07  1.33347e-07     0.233964 
         -50      105.108  2.09316e-07  1.31136e-07     0.233913 
         -50      105.739  2.08173e-07  1.29056e-07     0.233862 
         -50      106.371  2.06833e-07  1.27138e-07     0.233812 
         -50      107.005  2.05296e-07  1.25398e-07     0.233763 
         -50      107.641  2.03607e-07  1.23831e-07     0.233715 
         -50      108.279   2.0187e-07  1.22398e-07     0.233667 
         -50      108.919  2.00277e-07  1.21025e-07     0.233619 
         -50       109.56  1.99118e-07  1.19589e-07     0.233572 
         -50      110.204  1.98808e-07  1.17906e-07     0.233526 
         -50      110.849   1.9992e-07  1.15721e-07     0.233481 
         -50      111.497  2.03204e-07  1.12699e-07     0.233436 
         -50      112.146  2.04032e-07  1.10465e-07     0.233391 
         -50      112.797  2.00636e-07  1.09605e-07     0.233348 
         -50       113.45  1.98175e-07  1.08352e-07     0.233304 
         -50      114.105  1.96467e-07  1.06857e-07     0.233262 
         -50      114.761  1.95317e-07  1.05194e-07      0.23322 
         -50       115.42  1.94536e-07  1.03392e-07     0.233179 
         -50      116.081  1.93955e-07  1.01441e-07     0.233138 
         -50      116.743  1.93437e-07  9.93216e-08     0.233098 
         -50      117.407  1.92883e-07  9.70122e-08     0.233059 
         -50      118.073  1.92232e-07  9.45059e-08     0.233021 
         -50      118.741  1.91465e-07  9.18273e-08     0.232983 
         -50      119.411  1.90591e-07  8.90373e-08     0.232946 
         -50      120.083  1.89639e-07  8.62457e-08      0.23291 
         -50      120.757  1.88636e-07  8.36168e-08     0.232874 
         -50      121.432  1.87589e-07  8.13778e-08     0.232839 
         -50       122.11   1.8645e-07  7.98148e-08     0.232805 
         -50      122.789  1.85082e-07  7.92773e-08     0.232771 
         -50       123.47  1.87926e-07  7.70613e-08     0.232739 
         -50      124.153  1.88943e-07   7.5186e-08     0.232707 
         -50      124.838    1.886e-07  7.35426e-08     0.232675 
         -50      125.525  1.87313e-07  7.20118e-08     0.232645 
         -50      126.214  1.85432e-07  7.04766e-08     0.232615 
         -50      126.905  1.83252e-07  6.88306e-08     0.232586 
         -50      127.597   1.8101e-07  6.69816e-08     0.232557 
         -50      128.292  1.78893e-07  6.48591e-08     0.232529 
         -50      128.988  1.77051e-07  6.24257e-08     0.232502 
         -50      129.686  1.75593e-07  5.96792e-08     0.232476 
         -50      130.386  1.74595e-07  5.66649e-08     0.232451 
         -50      131.088  1.74111e-07  5.34828e-08     0.232426 
         -50      131.792  1.74173e-07   5.0302e-08     0.232402 
         -50      132.497  1.74802e-07  4.73636e-08     0.232378 
         -50      133.205  1.76007e-07  4.49966e-08     0.232355 
         -50      133.915    1.778e-07  4.36284e-08     0.232333 
         -50      134.626  1.78708e-07  4.29312e-08     0.232312 
         -50      135.339  1.78751e-07  4.09978e-08     0.232293 
         -50      136.054  1.81375e-07  3.93606e-08     0.232273 
         -50      136.771  1.84734e-07  3.78653e-08     0.232255 
         -50       137.49  1.87364e-07   3.6397e-08     0.232237 
         -50      138.211  1.88268e-07  3.48719e-08     0.232221 
         -50      138.934  1.86958e-07  3.32346e-08     0.232205 
         -50      139.658   1.8346e-07  3.14554e-08      0.23219 
         -50      140.385  1.78284e-07  2.95227e-08     0.232176 
         -50      141.113  1.72339e-07  2.74409e-08     0.232162 
         -50      141.843  1.66822e-07  2.52255e-08      0.23215 
         -50      142.575  1.63052e-07  2.29034e-08     0.232138 
         -50      143.309  1.62243e-07  2.05039e-08     0.232128 
         -50      144.045  1.65246e-07    1.806e-08     0.232118 
         -50      144.783  1.72232e-07  1.56034e-08     0.232109 
         -50      145.523  1.82298e-07  1.31664e-08     0.232101 
         -50      146.264  1.93049e-07  1.07748e-08     0.232094 
         -50      147.007  2.00094e-07  8.44941e-09     0.232088 
         -50      147.753  1.96477e-07  6.20418e-09     0.232083 
         -50        148.5  1.72059e-07  4.04865e-09     0.232079 
         -50      149.249  1.12814e-07  1.98274e-09     0.232077 
         -50          150  1.01611e-21  1.34233e-23     0.232075 
         -25            0           -0           -0     0.237791 
         -25     0.000942  1.13473e-07  6.07883e-12     0.237791 
         -25     0.003768  3.69659e-07  2.66571e-11     0.237791 
         -25     0.008478   5.9441e-07  6.99385e-11     0.237791 
         -25     0.015075  6.85021e-07  1.52644e-10     0.237791 
         -25     0.023553  6.92574e-07  3.01899e-10     0.237791 
         -25     0.033916  7.26782e-07  5.55733e-10     0.237791 
         -25     0.046163  7.87744e-07  9.62426e-10     0.237791 
         -25       0.0603  7.99955e-07  1.58199e-09     0.237791 
         -25     0.076315  8.52716e-07  2.48406e-09     0.237791 
         -25     0.094215   8.6832e-07  3.73975e-09     0.237791 
         -25     0.113999  8.90453e-07  5.42792e-09     0.237791 
         -25     0.135675  9.01888e-07  7.62075e-09     0.237791 
         -25     0.159228   9.0716e-07  1.03808e-08     0.237791 
         -25     0.184664  9.03984e-07    1.376e-08     0.237791 
         -25     0.211985   8.9227e-07   1.7797e-08     0.237791 
         -25     0.241201   8.7628e-07  2.25143e-08     0.237791 
         -25      0.27229  8.54064e-07  2.79101e-08     0.237791 
         -25     0.305263  8.29649e-07  3.39948e-08     0.237791 
         -25     0.340135  8.03971e-07  4.07218e-08     0.237791 
         -25     0.376877  7.78899e-07  4.80559e-08     0.237791 
         -25     0.415503  7.55861e-07  5.59834e-08     0.237791 
         -25     0.456013  7.35902e-07  6.44804e-08     0.237791 
         -25     0.498424  7.19725e-07  7.34978e-08     0.237791 
         -25     0.542703  7.07743e-07  8.29437e-08     0.237791 
         -25     0.588866  6.99891e-07  9.27453e-08     0.237791 
         -25     0.636912  6.95276e-07   1.0278e-07      0.23779 
         -25     0.686864  6.93384e-07  1.12956e-07      0.23779 
         -25     0.738679  6.92851e-07  1.23204e-07      0.23779 
         -25     0.792379  6.92273e-07  1.33405e-07      0.23779 
         -25     0.847962  6.90538e-07   1.4346e-07      0.23779 
         -25     0.905453  6.86893e-07  1.53293e-07      0.23779 
         -25     0.964806  6.80985e-07  1.62831e-07      0.23779 
         -25      1.02604  6.72861e-07  1.72015e-07      0.23779 
         -25      1.08919   6.6293e-07  1.80786e-07     0.237789 
         -25      1.15419  6.51889e-07  1.89059e-07     0.237789 
         -25      1.22108  6.40556e-07  1.96756e-07     0.237789 
         -25      1.28985  6.29666e-07  2.03798e-07     0.237789 
         -25      1.36054  6.19584e-07  2.10145e-07     0.237788 
         -25      1.43308  6.09944e-07  2.15847e-07     0.237788 
         -25      1.50751  5.99283e-07  2.21156e-07     0.237788 
         -25      1.58382  5.95379e-07  2.25898e-07     0.237787 
         -25      1.66204  5.92977e-07  2.29625e-07     0.237787 
         -25      1.74212  5.90876e-07  2.32253e-07     0.237787 
         -25      1.82409  5.88474e-07  2.33805e-07     0.237786 
         -25      1.90793  5.85725e-07  2.34401e-07     0.237786 
         -25       1.9937  5.83065e-07  2.34247e-07     0.237785 
         -25      2.08131  5.81309e-07  2.33623e-07     0.237785 
         -25      2.17081  5.81511e-07  2.32855e-07     0.237784 
         -25      2.26223  5.84806e-07  2.32296e-07     0.237783 
         -25       2.3555  5.92234e-07  2.32293e-07     0.237783 
         -25      2.45065  6.04559e-07  2.33156e-07     0.237782 
         -25      2.54769  6.22088e-07  2.35126e-07     0.237781 