Variables = x, y, u, v, p

Zone, I=3600, F=POINT
         -50            0            0            0     -0.66378 
         -50     0.000942 -9.18969e-08 -3.09715e-11     -0.66378 
         -50     0.003768 -2.78164e-07 -1.00735e-10     -0.66378 
         -50     0.008478 -3.84957e-07 -1.59331e-10     -0.66378 
         -50     0.015075 -3.39938e-07  -1.6968e-10     -0.66378 
         -50     0.023553 -2.43756e-07 -1.26907e-10     -0.66378 
         -50     0.033916 -2.19399e-07 -3.33525e-11     -0.66378 
         -50     0.046163 -2.15714e-07  1.42938e-10     -0.66378 
         -50       0.0603 -1.35957e-07  4.59389e-10     -0.66378 
         -50     0.076315 -1.58483e-07  9.53779e-10     -0.66378 
         -50     0.094215 -1.05852e-07  1.73554e-09    -0.663779 
         -50     0.113999 -9.52819e-08  2.84754e-09    -0.663779 
         -50     0.135675 -8.24302e-08  4.37207e-09    -0.663779 
         -50     0.159228  -8.5688e-08  6.39114e-09    -0.663779 
         -50     0.184664 -9.52326e-08  8.97606e-09    -0.663779 
         -50     0.211985  -1.0764e-07  1.21455e-08    -0.663779 
         -50     0.241201 -1.33452e-07  1.59108e-08    -0.663779 
         -50      0.27229 -1.57272e-07  2.01273e-08    -0.663779 
         -50     0.305263 -1.86532e-07  2.50861e-08    -0.663779 
         -50     0.340135 -2.16493e-07  3.08967e-08    -0.663778 
         -50     0.376877 -2.46417e-07  3.72577e-08    -0.663778 
         -50     0.415503 -2.74981e-07  4.36627e-08    -0.663778 
         -50     0.456013  -3.0086e-07  4.95387e-08    -0.663777 
         -50     0.498424 -3.23381e-07  5.44521e-08    -0.663777 
         -50     0.542703 -3.42711e-07  5.83106e-08    -0.663776 
         -50     0.588866 -3.59032e-07  6.15057e-08    -0.663776 
         -50     0.636912   -3.731e-07  6.80666e-08    -0.663775 
         -50     0.686864 -3.85344e-07  7.68613e-08    -0.663775 
         -50     0.738679 -3.94874e-07  8.46656e-08    -0.663774 
         -50     0.792379 -4.02185e-07  9.12548e-08    -0.663773 
         -50     0.847962 -4.07625e-07  9.68903e-08    -0.663772 
         -50     0.905453 -4.11432e-07  1.02151e-07    -0.663771 
         -50     0.964806 -4.13773e-07  1.07691e-07     -0.66377 
         -50      1.02604 -4.14819e-07  1.13981e-07    -0.663768 
         -50      1.08919 -4.14826e-07  1.21062e-07    -0.663767 
         -50      1.15419 -4.14212e-07  1.28361e-07    -0.663765 
         -50      1.22108 -4.13622e-07  1.34738e-07    -0.663764 
         -50      1.28985 -4.13958e-07  1.38804e-07    -0.663762 
         -50      1.36054 -4.16325e-07  1.39745e-07     -0.66376 
         -50      1.43308 -4.21861e-07  1.38844e-07    -0.663758 
         -50      1.50751 -4.31066e-07  1.41923e-07    -0.663755 
         -50      1.58382  -4.2802e-07  1.44679e-07    -0.663753 
         -50      1.66204 -4.35342e-07   1.4447e-07     -0.66375 
         -50      1.74212 -4.45374e-07  1.42791e-07    -0.663747 
         -50      1.82409 -4.52579e-07  1.40677e-07    -0.663744 
         -50      1.90793 -4.53522e-07  1.38719e-07    -0.663741 
         -50       1.9937 -4.46753e-07  1.37087e-07    -0.663737 
         -50      2.08131 -4.32604e-07  1.35592e-07    -0.663733 
         -50      2.17081 -4.12859e-07  1.33756e-07    -0.663729 
         -50      2.26223 -3.90351e-07  1.30912e-07    -0.663725 
         -50       2.3555 -3.68514e-07  1.26314e-07    -0.663721 
         -50      2.45065 -3.50802e-07  1.19254e-07    -0.663716 
         -50      2.54769 -3.40178e-07  1.09193e-07    -0.663711 
         -50      2.64665 -3.38579e-07  9.58689e-08    -0.663705 
         -50      2.74746 -3.46469e-07  7.94148e-08    -0.663699 
         -50      2.85014 -3.62535e-07  6.03924e-08    -0.663693 
         -50      2.95472 -3.83617e-07  3.98188e-08    -0.663687 
         -50      3.06122 -4.04966e-07  1.90848e-08     -0.66368 
         -50      3.16956 -4.20905e-07 -1.84023e-10    -0.663673 
         -50      3.27979 -4.26163e-07  -1.6486e-08    -0.663665 
         -50       3.3919 -4.17856e-07 -2.88904e-08    -0.663658 
         -50      3.50594 -3.98441e-07 -3.77444e-08    -0.663649 
         -50      3.62181 -3.79852e-07 -4.56214e-08    -0.663641 
         -50      3.73958 -3.88933e-07 -5.86203e-08    -0.663631 
         -50      3.85927 -3.97518e-07  -7.1486e-08    -0.663622 
         -50       3.9808 -3.89916e-07 -8.58179e-08    -0.663612 
         -50      4.10422 -3.86772e-07 -9.17778e-08    -0.663601 
         -50      4.22952 -3.81931e-07  -9.9861e-08     -0.66359 
         -50      4.35675 -3.77123e-07 -1.08891e-07    -0.663579 
         -50      4.48582 -3.73621e-07  -1.1778e-07    -0.663567 
         -50      4.61677 -3.72036e-07 -1.25968e-07    -0.663554 
         -50      4.74961 -3.72236e-07 -1.33621e-07    -0.663541 
         -50      4.88438 -3.73398e-07 -1.41531e-07    -0.663528 
         -50      5.02099 -3.74239e-07 -1.50612e-07    -0.663513 
         -50      5.15948 -3.73486e-07 -1.60895e-07    -0.663499 
         -50      5.29985 -3.70632e-07 -1.69864e-07    -0.663483 
         -50      5.44217 -3.67045e-07     -1.7e-07    -0.663467 
         -50      5.58631 -3.53814e-07 -1.85742e-07    -0.663451 
         -50      5.73233 -3.52052e-07 -1.93329e-07    -0.663433 
         -50      5.88024 -3.50233e-07 -1.98368e-07    -0.663415 
         -50       6.0301 -3.45014e-07 -2.04118e-07    -0.663397 
         -50      6.18178 -3.38402e-07 -2.11195e-07    -0.663377 
         -50      6.33534 -3.34097e-07 -2.18545e-07    -0.663357 
         -50      6.49085 -3.34388e-07 -2.23945e-07    -0.663337 
         -50      6.64818 -3.37857e-07 -2.23881e-07    -0.663315 
         -50      6.80739 -3.40286e-07 -2.16031e-07    -0.663293 
         -50      6.96849  -3.4313e-07 -2.08969e-07     -0.66327 
         -50      7.13154 -3.30767e-07 -2.23456e-07    -0.663246 
         -50      7.29641 -3.33566e-07 -2.05663e-07    -0.663221 
         -50      7.46316 -3.25858e-07 -2.00807e-07    -0.663196 
         -50       7.6318  -3.1634e-07 -2.03368e-07     -0.66317 
         -50      7.80239 -3.10705e-07 -2.05063e-07    -0.663142 
         -50      7.97479 -3.08932e-07  -2.0423e-07    -0.663114 
         -50      8.14908 -3.08513e-07 -2.02347e-07    -0.663086 
         -50      8.32526 -3.07021e-07 -2.01217e-07    -0.663056 
         -50      8.50338 -3.03748e-07 -2.01112e-07    -0.663025 
         -50      8.68333 -3.00153e-07 -2.00141e-07    -0.662993 
         -50      8.86515 -2.98625e-07 -1.97452e-07    -0.662961 
         -50      9.04894 -3.02071e-07 -1.90106e-07    -0.662927 
         -50      9.23453 -3.03009e-07 -1.81659e-07    -0.662892 
         -50      9.42201 -2.98911e-07 -1.94614e-07    -0.662857 
         -50      9.61137 -3.03861e-07 -1.81368e-07     -0.66282 
         -50      9.80269  -3.0443e-07 -1.83521e-07    -0.662782 
         -50      9.99583 -3.03072e-07 -1.88617e-07    -0.662744 
         -50      10.1908 -3.01302e-07 -1.91439e-07    -0.662704 
         -50      10.3877 -2.99872e-07 -1.91419e-07    -0.662663 
         -50      10.5866 -2.98965e-07 -1.90326e-07    -0.662621 
         -50      10.7873 -2.98436e-07 -1.90356e-07    -0.662578 
         -50      10.9898 -2.98062e-07 -1.92737e-07    -0.662533 
         -50      11.1943 -2.97845e-07 -1.97011e-07    -0.662488 
         -50      11.4007 -2.98333e-07 -2.01143e-07    -0.662441 
         -50      11.6089 -3.00984e-07 -2.02628e-07    -0.662394 
         -50       11.819 -3.08561e-07 -2.00807e-07    -0.662345 
         -50       12.031 -3.11372e-07 -2.05833e-07    -0.662294 
         -50      12.2449 -3.03579e-07 -2.10158e-07    -0.662243 
         -50      12.4606 -2.96223e-07 -2.10809e-07     -0.66219 
         -50      12.6782 -2.93601e-07 -2.11086e-07    -0.662136 
         -50      12.8978 -3.01129e-07 -2.11117e-07    -0.662081 
         -50      13.1192 -2.94401e-07 -2.12479e-07    -0.662024 
         -50      13.3425 -2.87966e-07  -2.0591e-07    -0.661967 
         -50      13.5677 -2.90111e-07 -1.94884e-07    -0.661907 
         -50      13.7948 -2.93013e-07 -1.85745e-07    -0.661847 
         -50      14.0237 -2.93139e-07 -1.81748e-07    -0.661785 
         -50      14.2546 -2.90092e-07 -1.83355e-07    -0.661722 
         -50      14.4873 -2.85446e-07 -1.88818e-07    -0.661657 
         -50      14.7219 -2.81608e-07 -1.94999e-07    -0.661591 
         -50      14.9584 -2.80734e-07 -1.98493e-07    -0.661524 
         -50      15.1968 -2.83695e-07 -1.97112e-07    -0.661455 
         -50      15.4371 -2.89164e-07 -1.91731e-07    -0.661385 
         -50      15.6792 -2.92802e-07 -1.88584e-07    -0.661314 
         -50      15.9232 -2.86642e-07 -2.02007e-07    -0.661241 
         -50      16.1691 -2.93257e-07 -1.91044e-07    -0.661166 
         -50       16.417 -2.90852e-07 -1.75441e-07     -0.66109 
         -50      16.6666  -2.8265e-07 -1.68113e-07    -0.661013 
         -50      16.9182 -2.77155e-07  -1.6806e-07    -0.660934 
         -50      17.1716 -2.80195e-07 -1.72773e-07    -0.660853 
         -50       17.427 -2.95445e-07 -1.79042e-07    -0.660771 
         -50      17.6842 -2.92098e-07 -1.78203e-07    -0.660688 
         -50      17.9433 -2.85579e-07 -1.77347e-07    -0.660603 
         -50      18.2042 -2.87382e-07 -1.78394e-07    -0.660517 
         -50      18.4672 -2.93101e-07 -1.79362e-07    -0.660429 
         -50      18.7319 -2.98192e-07 -1.78682e-07    -0.660339 
         -50      18.9985 -2.99288e-07 -1.76156e-07    -0.660248 
         -50       19.267 -2.95546e-07 -1.74233e-07    -0.660155 
         -50      19.5375 -2.90033e-07 -1.79631e-07    -0.660061 
         -50      19.8098 -2.89603e-07 -2.01598e-07    -0.659965 
         -50       20.084  -2.8088e-07 -1.96049e-07    -0.659868 
         -50      20.3601 -2.75107e-07 -1.88578e-07    -0.659769 
         -50       20.638  -2.7149e-07 -1.79911e-07    -0.659669 
         -50      20.9178 -2.69426e-07 -1.70936e-07    -0.659566 
         -50      21.1995 -2.68468e-07 -1.62581e-07    -0.659463 
         -50      21.4832 -2.68289e-07  -1.5568e-07    -0.659358 
         -50      21.7687 -2.68644e-07 -1.50887e-07    -0.659251 
         -50       22.056  -2.6934e-07 -1.48574e-07    -0.659142 
         -50      22.3452 -2.70207e-07 -1.48788e-07    -0.659032 
         -50      22.6365 -2.71077e-07 -1.51229e-07    -0.658921 
         -50      22.9295 -2.71767e-07 -1.55247e-07    -0.658807 
         -50      23.2243  -2.7207e-07 -1.59907e-07    -0.658693 
         -50      23.5211 -2.71756e-07 -1.64081e-07    -0.658576 
         -50      23.8199 -2.70579e-07 -1.66589e-07    -0.658458 
         -50      24.1204 -2.68296e-07 -1.66407e-07    -0.658339 
         -50      24.4228   -2.647e-07 -1.62937e-07    -0.658218 
         -50      24.7272 -2.59665e-07 -1.56334e-07    -0.658095 
         -50      25.0334 -2.53208e-07 -1.47937e-07    -0.657971 
         -50      25.3415 -2.45564e-07 -1.40744e-07    -0.657845 
         -50      25.6514 -2.46653e-07 -1.47297e-07    -0.657717 
         -50      25.9634 -2.70647e-07 -2.07618e-07    -0.657588 
         -50      26.2771 -2.56213e-07 -1.90105e-07    -0.657458 
         -50      26.5927 -2.70864e-07 -1.75644e-07    -0.657326 
         -50      26.9102   -2.797e-07 -1.63963e-07    -0.657192 
         -50      27.2297 -2.77383e-07 -1.52919e-07    -0.657057 
         -50       27.551  -2.7083e-07 -1.45734e-07     -0.65692 
         -50      27.8741 -2.63606e-07 -1.41889e-07    -0.656782 
         -50      28.1991  -2.5699e-07 -1.40344e-07    -0.656642 
         -50      28.5262 -2.51692e-07 -1.40257e-07    -0.656501 
         -50       28.855 -2.47978e-07 -1.40959e-07    -0.656358 
         -50      29.1856 -2.45767e-07 -1.41945e-07    -0.656214 
         -50      29.5183 -2.44744e-07 -1.42853e-07    -0.656068 
         -50      29.8528  -2.4446e-07 -1.43441e-07    -0.655921 
         -50      30.1891 -2.44416e-07 -1.43578e-07    -0.655772 
         -50      30.5273 -2.44147e-07 -1.43219e-07    -0.655622 
         -50      30.8676 -2.43287e-07 -1.42392e-07    -0.655471 
         -50      31.2096 -2.41628e-07 -1.41177e-07    -0.655318 
         -50      31.5534  -2.3915e-07 -1.39697e-07    -0.655163 
         -50      31.8992 -2.36042e-07 -1.38097e-07    -0.655008 
         -50      32.2469 -2.32703e-07 -1.36532e-07     -0.65485 
         -50      32.5965 -2.29719e-07  -1.3516e-07    -0.654692 
         -50      32.9479 -2.27803e-07 -1.34126e-07    -0.654532 
         -50      33.3012 -2.27725e-07 -1.33558e-07    -0.654371 
         -50      33.6565   -2.302e-07 -1.33558e-07    -0.654208 
         -50      34.0135 -2.35738e-07 -1.34205e-07    -0.654044 
         -50      34.3725 -2.29086e-07 -1.40914e-07    -0.653879 
         -50      34.7334 -2.24437e-07 -1.36665e-07    -0.653713 
         -50      35.0962 -2.25616e-07 -1.18609e-07    -0.653545 
         -50      35.4608 -2.24071e-07  -1.1299e-07    -0.653376 
         -50      35.8272 -2.21845e-07 -1.18174e-07    -0.653206 
         -50      36.1957 -2.20673e-07 -1.20756e-07    -0.653035 
         -50       36.566 -2.19303e-07 -1.21846e-07    -0.652862 
         -50      36.9381 -2.17262e-07 -1.22247e-07    -0.652689 
         -50      37.3121 -2.14611e-07 -1.22485e-07    -0.652514 
         -50      37.6882 -2.11719e-07 -1.22851e-07    -0.652338 
         -50       38.066  -2.0907e-07 -1.23438e-07    -0.652161 
         -50      38.4456 -2.07102e-07 -1.24185e-07    -0.651983 
         -50      38.8272 -2.06082e-07 -1.24928e-07    -0.651803 
         -50      39.2108 -2.06039e-07 -1.25447e-07    -0.651623 
         -50      39.5961 -2.06727e-07 -1.25525e-07    -0.651442 
         -50      39.9833 -2.07659e-07 -1.25002e-07    -0.651259 
         -50      40.3724 -2.08196e-07 -1.23842e-07    -0.651076 
         -50      40.7635 -2.07697e-07 -1.22197e-07    -0.650892 
         -50      41.1564 -2.05755e-07  -1.2048e-07    -0.650706 
         -50      41.5511   -2.025e-07 -1.19435e-07     -0.65052 
         -50      41.9479 -1.98998e-07 -1.20225e-07    -0.650333 
         -50      42.3464 -1.97595e-07 -1.23869e-07    -0.650145 
         -50      42.7468 -1.96146e-07  -1.2162e-07    -0.649956 
         -50      43.1491 -1.93938e-07 -1.17897e-07    -0.649766 
         -50      43.5534  -1.9137e-07 -1.13815e-07    -0.649576 
         -50      43.9595 -1.88827e-07 -1.10601e-07    -0.649384 
         -50      44.3674 -1.86783e-07  -1.0937e-07    -0.649192 
         -50      44.7772 -1.85883e-07 -1.10919e-07    -0.648999 
         -50      45.1891 -1.87035e-07 -1.15533e-07    -0.648806 
         -50      45.6027 -1.91481e-07 -1.22804e-07    -0.648611 
         -50      46.0181 -1.94641e-07 -1.28941e-07    -0.648416 
         -50      46.4355 -1.91649e-07 -1.29479e-07    -0.648221 
         -50      46.8549 -1.89498e-07 -1.28539e-07    -0.648024 
         -50       47.276 -1.87187e-07 -1.27266e-07    -0.647827 
         -50       47.699 -1.84243e-07 -1.26309e-07     -0.64763 
         -50      48.1241 -1.80686e-07 -1.25868e-07    -0.647431 
         -50      48.5508 -1.76943e-07 -1.25772e-07    -0.647233 
         -50      48.9795 -1.73698e-07 -1.25609e-07    -0.647033 
         -50        49.41 -1.71685e-07 -1.24906e-07    -0.646834 
         -50      49.8426 -1.71405e-07 -1.23359e-07    -0.646633 
         -50      50.2769 -1.72782e-07 -1.21127e-07    -0.646433 
         -50      50.7131 -1.74723e-07 -1.19179e-07    -0.646232 
         -50      51.1512 -1.74606e-07 -1.19725e-07     -0.64603 
         -50      51.5914 -1.67665e-07 -1.26706e-07    -0.645828 
         -50      52.0332  -1.6428e-07 -1.22633e-07    -0.645626 
         -50      52.4769 -1.64722e-07 -1.17083e-07    -0.645423 
         -50      52.9225 -1.65525e-07 -1.14701e-07     -0.64522 
         -50      53.3702 -1.66402e-07 -1.14426e-07    -0.645017 
         -50      53.8196  -1.6707e-07 -1.15379e-07    -0.644813 
         -50      54.2709 -1.67277e-07  -1.1686e-07    -0.644609 
         -50      54.7242  -1.6682e-07 -1.18339e-07    -0.644405 
         -50      55.1792 -1.65569e-07 -1.19445e-07    -0.644201 
         -50      55.6362 -1.63485e-07 -1.19957e-07    -0.643997 
         -50       56.095 -1.60633e-07 -1.19793e-07    -0.643792 
         -50      56.5558 -1.57198e-07  -1.1899e-07    -0.643587 
         -50      57.0184 -1.53501e-07 -1.17701e-07    -0.643382 
         -50      57.4829 -1.49995e-07 -1.16167e-07    -0.643178 
         -50      57.9492 -1.47279e-07 -1.14708e-07    -0.642973 
         -50      58.4176 -1.46098e-07 -1.13699e-07    -0.642767 
         -50      58.8877 -1.47335e-07 -1.13553e-07    -0.642562 
         -50      59.3597 -1.52008e-07 -1.14699e-07    -0.642357 
         -50      59.8336  -1.5086e-07 -1.15612e-07    -0.642152 
         -50      60.3096 -1.48003e-07 -1.16069e-07    -0.641947 
         -50      60.7872 -1.46319e-07  -1.1632e-07    -0.641742 
         -50      61.2667  -1.4587e-07  -1.1617e-07    -0.641537 
         -50      61.7484 -1.46413e-07 -1.15367e-07    -0.641333 
         -50      62.2317 -1.47278e-07 -1.13638e-07    -0.641128 
         -50      62.7168 -1.47251e-07  -1.1074e-07    -0.640924 
         -50      63.2039 -1.44442e-07 -1.06513e-07    -0.640719 
         -50      63.6931 -1.39818e-07 -1.08454e-07    -0.640515 
         -50      64.1839 -1.36965e-07 -1.12414e-07    -0.640311 
         -50      64.6766 -1.34435e-07 -1.12488e-07    -0.640108 
         -50      65.1712 -1.32388e-07 -1.10524e-07    -0.639904 
         -50      65.6679 -1.30925e-07  -1.0783e-07    -0.639701 
         -50      66.1663 -1.30078e-07 -1.05266e-07    -0.639498 
         -50      66.6665 -1.29803e-07 -1.03319e-07    -0.639296 
         -50      67.1687 -1.29983e-07 -1.02189e-07    -0.639094 
         -50      67.6729 -1.30438e-07 -1.01859e-07    -0.638892 
         -50      68.1788  -1.3094e-07 -1.02163e-07     -0.63869 
         -50      68.6866 -1.31233e-07 -1.02853e-07     -0.63849 
         -50      69.1963 -1.31069e-07  -1.0365e-07    -0.638289 
         -50      69.7081 -1.30242e-07 -1.04293e-07    -0.638089 
         -50      70.2215 -1.28647e-07 -1.04584e-07    -0.637889 
         -50      70.7368 -1.26329e-07 -1.04414e-07     -0.63769 
         -50      71.2543 -1.23559e-07 -1.03787e-07    -0.637491 
         -50      71.7734 -1.20916e-07 -1.02831e-07    -0.637293 
         -50      72.2943 -1.19378e-07 -1.01795e-07    -0.637096 
         -50      72.8172 -1.20427e-07 -1.01042e-07    -0.636899 
         -50      73.3422 -1.25577e-07 -1.00902e-07    -0.636702 
         -50      73.8688 -1.20753e-07  -9.9096e-08    -0.636507 
         -50      74.3973 -1.18407e-07 -9.79423e-08    -0.636312 
         -50      74.9277 -1.18913e-07  -9.5986e-08    -0.636117 
         -50      75.4602 -1.21828e-07 -9.03902e-08    -0.635923 
         -50      75.9944 -1.17401e-07 -9.07194e-08     -0.63573 
         -50      76.5305 -1.12245e-07 -9.37226e-08    -0.635538 
         -50      77.0684 -1.10247e-07 -9.41539e-08    -0.635346 
         -50      77.6084 -1.10307e-07 -9.28446e-08    -0.635155 
         -50      78.1502  -1.1156e-07 -9.04747e-08    -0.634964 
         -50      78.6937 -1.13353e-07  -8.7595e-08    -0.634775 
         -50      79.2394 -1.15208e-07 -8.46536e-08    -0.634586 
         -50      79.7868 -1.15143e-07 -8.30889e-08    -0.634398 
         -50      80.3361   -1.099e-07 -8.50399e-08    -0.634211 
         -50      80.8872 -1.06315e-07 -8.60233e-08    -0.634025 
         -50      81.4404 -1.04155e-07 -8.61378e-08     -0.63384 
         -50      81.9953 -1.03142e-07 -8.55246e-08    -0.633656 
         -50      82.5521 -1.02976e-07 -8.43532e-08    -0.633472 
         -50      83.1108 -1.03352e-07 -8.28064e-08     -0.63329 
         -50      83.6715 -1.03976e-07 -8.10671e-08    -0.633108 
         -50       84.234 -1.04585e-07 -7.93095e-08    -0.632927 
         -50      84.7983  -1.0496e-07 -7.76844e-08    -0.632748 
         -50      85.3645 -1.04935e-07 -7.63134e-08    -0.632569 
         -50      85.9328 -1.04413e-07 -7.52799e-08    -0.632391 
         -50      86.5028 -1.03374e-07 -7.46253e-08    -0.632214 
         -50      87.0747 -1.01881e-07  -7.4343e-08    -0.632039 
         -50      87.6486 -1.00082e-07 -7.43778e-08    -0.631864 
         -50      88.2243 -9.82195e-08 -7.46259e-08    -0.631691 
         -50      88.8018 -9.66223e-08 -7.49376e-08    -0.631518 
         -50      89.3812 -9.57061e-08 -7.51218e-08    -0.631347 
         -50      89.9627 -9.59667e-08  -7.4954e-08    -0.631177 
         -50      90.5458 -9.79698e-08 -7.41865e-08    -0.631008 
         -50      91.1309 -1.00651e-07 -7.24886e-08     -0.63084 
         -50      91.7178 -9.79468e-08 -7.08578e-08    -0.630673 
         -50      92.3069 -9.60717e-08 -7.01319e-08    -0.630508 
         -50      92.8976 -9.48798e-08 -6.98688e-08    -0.630344 
         -50      93.4901  -9.4241e-08 -6.97533e-08     -0.63018 
         -50      94.0846 -9.40262e-08 -6.95839e-08    -0.630019 
         -50      94.6812 -9.40884e-08 -6.92578e-08    -0.629858 
         -50      95.2794  -9.4246e-08 -6.87567e-08    -0.629699 
         -50      95.8796 -9.42671e-08 -6.81314e-08    -0.629541 
         -50      96.4818 -9.38553e-08  -6.7487e-08    -0.629384 
         -50      97.0857 -9.26372e-08 -6.69691e-08    -0.629229 
         -50      97.6915 -9.01508e-08 -6.67469e-08    -0.629075 
         -50      98.2991  -8.7943e-08 -6.63193e-08    -0.628922 
         -50      98.9089 -8.95847e-08 -6.46152e-08    -0.628771 
         -50      99.5203 -9.03708e-08 -6.31774e-08    -0.628621 
         -50      100.134 -9.05262e-08  -6.1907e-08    -0.628473 
         -50      100.749 -9.02434e-08 -6.07315e-08    -0.628326 
         -50      101.366 -8.96827e-08 -5.96024e-08     -0.62818 
         -50      101.985  -8.8974e-08 -5.84954e-08    -0.628036 
         -50      102.606 -8.82156e-08 -5.74057e-08    -0.627893 
         -50      103.229 -8.74771e-08 -5.63463e-08    -0.627752 
         -50      103.854 -8.68007e-08 -5.53432e-08    -0.627612 
         -50       104.48 -8.62053e-08 -5.44323e-08    -0.627474 
         -50      105.108  -8.5688e-08 -5.36509e-08    -0.627337 
         -50      105.739 -8.52296e-08 -5.30322e-08    -0.627202 
         -50      106.371 -8.47992e-08 -5.25976e-08    -0.627068 
         -50      107.005 -8.43604e-08 -5.23475e-08    -0.626936 
         -50      107.641 -8.38771e-08 -5.22506e-08    -0.626805 
         -50      108.279 -8.33216e-08 -5.22329e-08    -0.626676 
         -50      108.919 -8.26833e-08  -5.2165e-08    -0.626549 
         -50       109.56 -8.19776e-08 -5.18482e-08    -0.626424 
         -50      110.204 -8.12568e-08 -5.09989e-08      -0.6263 
         -50      110.849 -8.06211e-08 -4.92307e-08    -0.626178 
         -50      111.497 -8.02328e-08 -4.60397e-08    -0.626057 
         -50      112.146 -8.14609e-08 -4.50471e-08    -0.625938 
         -50      112.797 -8.28415e-08 -4.70648e-08    -0.625821 
         -50       113.45 -8.30154e-08 -4.80854e-08    -0.625705 
         -50      114.105  -8.2419e-08   -4.836e-08    -0.625591 
         -50      114.761 -8.13966e-08 -4.81046e-08    -0.625479 
         -50       115.42 -8.02109e-08  -4.7498e-08    -0.625369 
         -50      116.081 -7.90538e-08 -4.66826e-08     -0.62526 
         -50      116.743 -7.80568e-08 -4.57663e-08    -0.625154 
         -50      117.407 -7.72963e-08 -4.48209e-08    -0.625049 
         -50      118.073 -7.68007e-08 -4.38852e-08    -0.624946 
         -50      118.741 -7.65556e-08 -4.29669e-08    -0.624846 
         -50      119.411 -7.65044e-08  -4.2043e-08    -0.624747 
         -50      120.083 -7.65503e-08 -4.10633e-08     -0.62465 
         -50      120.757 -7.65544e-08 -3.99528e-08    -0.624554 
         -50      121.432 -7.63318e-08 -3.86165e-08    -0.624461 
         -50       122.11 -7.56461e-08 -3.69406e-08    -0.624369 
         -50      122.789 -7.42005e-08 -3.47984e-08    -0.624279 
         -50       123.47 -7.66486e-08 -3.42647e-08    -0.624191 
         -50      124.153  -7.7989e-08 -3.36075e-08    -0.624106 
         -50      124.838 -7.84258e-08 -3.28605e-08    -0.624023 
         -50      125.525 -7.81702e-08 -3.20566e-08    -0.623941 
         -50      126.214 -7.74203e-08 -3.12219e-08    -0.623862 
         -50      126.905  -7.6359e-08 -3.03779e-08    -0.623785 
         -50      127.597 -7.51489e-08 -2.95409e-08     -0.62371 
         -50      128.292 -7.39302e-08 -2.87236e-08    -0.623637 
         -50      128.988   -7.282e-08 -2.79374e-08    -0.623566 
         -50      129.686 -7.19066e-08 -2.71911e-08    -0.623496 
         -50      130.386 -7.12498e-08 -2.64934e-08    -0.623429 
         -50      131.088 -7.08784e-08 -2.58526e-08    -0.623364 
         -50      131.792 -7.07891e-08 -2.52786e-08      -0.6233 
         -50      132.497 -7.09443e-08 -2.47821e-08    -0.623239 
         -50      133.205 -7.12727e-08 -2.43759e-08    -0.623179 
         -50      133.915 -7.16678e-08  -2.4075e-08    -0.623122 
         -50      134.626 -7.12756e-08  -2.3594e-08    -0.623067 
         -50      135.339 -7.06408e-08 -2.25906e-08    -0.623015 
         -50      136.054 -7.16192e-08 -2.17804e-08    -0.622965 
         -50      136.771 -7.31733e-08 -2.10395e-08    -0.622917 
         -50       137.49 -7.44983e-08 -2.02786e-08    -0.622871 
         -50      138.211 -7.50508e-08 -1.94389e-08    -0.622827 
         -50      138.934 -7.45548e-08   -1.849e-08    -0.622785 
         -50      139.658  -7.2997e-08 -1.74283e-08    -0.622746 
         -50      140.385 -7.06023e-08 -1.62703e-08    -0.622709 
         -50      141.113 -6.77934e-08 -1.50492e-08    -0.622675 
         -50      141.843 -6.51306e-08 -1.38091e-08    -0.622644 
         -50      142.575 -6.32377e-08 -1.26005e-08    -0.622615 
         -50      143.309 -6.26955e-08 -1.14701e-08    -0.622589 
         -50      144.045 -6.39267e-08 -1.04554e-08    -0.622565 
         -50      144.783 -6.70531e-08 -9.57509e-09    -0.622544 
         -50      145.523 -7.17237e-08 -8.82046e-09    -0.622525 
         -50      146.264 -7.69314e-08 -8.14323e-09    -0.622509 
         -50      147.007 -8.07926e-08 -7.44537e-09    -0.622495 
         -50      147.753 -8.03034e-08 -6.56577e-09    -0.622484 
         -50        148.5 -7.10701e-08 -5.26824e-09    -0.622476 
         -50      149.249 -4.70114e-08 -3.22488e-09     -0.62247 
         -50          150 -4.26478e-22 -2.75514e-23    -0.622467 
         -25            0           -0           -0    -0.637794 
         -25     0.000942 -7.04705e-08 -1.25358e-11    -0.637794 
         -25     0.003768 -2.16645e-07 -3.42676e-11    -0.637794 
         -25     0.008478 -3.11646e-07 -2.59006e-11    -0.637794 
         -25     0.015075 -3.02475e-07  5.76271e-11    -0.637794 
         -25     0.023553 -2.61999e-07   2.5567e-10    -0.637794 
         -25     0.033916 -2.79062e-07   6.0672e-10    -0.637794 
         -25     0.046163 -3.15133e-07  1.15834e-09    -0.637794 
         -25       0.0603 -2.98159e-07  1.95833e-09    -0.637794 
         -25     0.076315 -3.56366e-07  3.03191e-09    -0.637794 
         -25     0.094215 -3.58219e-07  4.41619e-09    -0.637794 
         -25     0.113999 -3.87179e-07  6.10243e-09    -0.637794 
         -25     0.135675 -4.08959e-07  8.08673e-09    -0.637794 
         -25     0.159228 -4.35365e-07  1.03419e-08    -0.637794 
         -25     0.184664 -4.58113e-07  1.28322e-08    -0.637794 
         -25     0.211985 -4.74174e-07  1.55133e-08    -0.637794 
         -25     0.241201 -4.91315e-07  1.83397e-08    -0.637794 
         -25      0.27229 -4.98892e-07  2.12731e-08    -0.637794 
         -25     0.305263  -5.0334e-07  2.42658e-08    -0.637794 
         -25     0.340135 -5.02373e-07  2.72944e-08    -0.637794 
         -25     0.376877 -4.96876e-07  3.03264e-08    -0.637794 
         -25     0.415503 -4.87317e-07  3.33367e-08    -0.637794 
         -25     0.456013 -4.73969e-07  3.63193e-08    -0.637793 
         -25     0.498424 -4.57196e-07  3.93034e-08    -0.637793 
         -25     0.542703 -4.37616e-07  4.23454e-08    -0.637793 
         -25     0.588866 -4.15728e-07  4.54972e-08    -0.637793 
         -25     0.636912 -3.91661e-07  4.87733e-08    -0.637793 
         -25     0.686864 -3.65953e-07  5.19917e-08    -0.637792 
         -25     0.738679 -3.39177e-07  5.51501e-08    -0.637792 
         -25     0.792379 -3.12177e-07  5.83073e-08    -0.637792 
         -25     0.847962 -2.85748e-07  6.14888e-08    -0.637791 
         -25     0.905453 -2.60557e-07  6.46914e-08    -0.637791 
         -25     0.964806 -2.37138e-07  6.78841e-08     -0.63779 
         -25      1.02604 -2.15788e-07  7.10229e-08     -0.63779 
         -25      1.08919 -1.96575e-07  7.40563e-08    -0.637789 
         -25      1.15419 -1.79359e-07  7.69287e-08    -0.637789 
         -25      1.22108 -1.63778e-07  7.95916e-08    -0.637788 
         -25      1.28985 -1.49365e-07  8.19935e-08    -0.637788 
         -25      1.36054 -1.35683e-07  8.40624e-08    -0.637787 
         -25      1.43308 -1.22588e-07  8.56618e-08    -0.637786 
         -25      1.50751 -1.10405e-07  8.65466e-08    -0.637785 
         -25      1.58382  -9.4374e-08  8.78889e-08    -0.637784 
         -25      1.66204  -8.4554e-08  8.82848e-08    -0.637783 
         -25      1.74212 -7.84192e-08  8.81352e-08    -0.637782 
         -25      1.82409 -7.39321e-08  8.77668e-08    -0.637781 
         -25      1.90793 -6.95894e-08  8.74198e-08     -0.63778 
         -25       1.9937 -6.44223e-08  8.72397e-08    -0.637778 
         -25      2.08131 -5.79885e-08  8.72713e-08    -0.637777 
         -25      2.17081 -5.03193e-08  8.74564e-08    -0.637775 
         -25      2.26223 -4.18585e-08  8.76365e-08    -0.637774 
         -25       2.3555 -3.33847e-08  8.75591e-08    -0.637772 
         -25      2.45065 -2.58812e-08  8.68922e-08     -0.63777 
         -25      2.54769 -2.04201e-08  8.52427e-08    -0.637768 