Variables = x, y, u, v, p

Zone, I=3600, F=POINT
         -50            0            0            0     -1.23295 
         -50     0.000942 -2.52864e-07 -6.36313e-11     -1.23295 
         -50     0.003768  -8.0495e-07 -2.31431e-10     -1.23295 
         -50     0.008478 -1.23981e-06 -4.58976e-10     -1.23295 
         -50     0.015075 -1.34039e-06 -7.32634e-10     -1.23295 
         -50     0.023553 -1.27501e-06 -1.09905e-09     -1.23295 
         -50     0.033916 -1.31579e-06 -1.64324e-09     -1.23295 
         -50     0.046163 -1.40912e-06 -2.44139e-09     -1.23295 
         -50       0.0603 -1.35003e-06 -3.56279e-09     -1.23295 
         -50     0.076315 -1.44153e-06   -5.085e-09     -1.23295 
         -50     0.094215 -1.40726e-06 -6.99957e-09     -1.23295 
         -50     0.113999 -1.41934e-06 -9.42246e-09     -1.23295 
         -50     0.135675  -1.4122e-06 -1.23534e-08     -1.23295 
         -50     0.159228 -1.40871e-06 -1.58216e-08     -1.23295 
         -50     0.184664  -1.3974e-06 -1.98551e-08     -1.23295 
         -50     0.211985 -1.37556e-06 -2.45102e-08     -1.23295 
         -50     0.241201 -1.35915e-06 -2.99438e-08     -1.23295 
         -50      0.27229  -1.3327e-06  -3.6331e-08     -1.23295 
         -50     0.305263 -1.30894e-06 -4.43223e-08     -1.23294 
         -50     0.340135 -1.28533e-06 -5.41002e-08     -1.23294 
         -50     0.376877 -1.26433e-06 -6.47335e-08     -1.23294 
         -50     0.415503 -1.24738e-06 -7.47244e-08     -1.23294 
         -50     0.456013 -1.23513e-06 -8.27578e-08     -1.23294 
         -50     0.498424 -1.22773e-06 -8.85545e-08     -1.23294 
         -50     0.542703 -1.22507e-06 -9.34088e-08     -1.23294 
         -50     0.588866 -1.22653e-06  -9.9796e-08     -1.23294 
         -50     0.636912 -1.23047e-06 -1.12881e-07     -1.23294 
         -50     0.686864 -1.23653e-06 -1.27235e-07     -1.23294 
         -50     0.738679 -1.24365e-06 -1.39568e-07     -1.23294 
         -50     0.792379 -1.25068e-06 -1.50471e-07     -1.23293 
         -50     0.847962 -1.25669e-06 -1.60429e-07     -1.23293 
         -50     0.905453 -1.26104e-06 -1.69824e-07     -1.23293 
         -50     0.964806 -1.26346e-06 -1.78932e-07     -1.23293 
         -50      1.02604 -1.26403e-06 -1.87959e-07     -1.23293 
         -50      1.08919 -1.26315e-06 -1.97045e-07     -1.23292 
         -50      1.15419 -1.26149e-06  -2.0624e-07     -1.23292 
         -50      1.22108 -1.25977e-06 -2.15498e-07     -1.23292 
         -50      1.28985 -1.25856e-06 -2.24566e-07     -1.23291 
         -50      1.36054 -1.25789e-06 -2.32813e-07     -1.23291 
         -50      1.43308 -1.25675e-06 -2.38906e-07     -1.23291 
         -50      1.50751 -1.25246e-06 -2.40501e-07      -1.2329 
         -50      1.58382 -1.25272e-06 -2.47026e-07      -1.2329 
         -50      1.66204 -1.25822e-06 -2.51444e-07     -1.23289 
         -50      1.74212 -1.26703e-06 -2.54399e-07     -1.23289 
         -50      1.82409 -1.27774e-06 -2.56542e-07     -1.23288 
         -50      1.90793 -1.28944e-06 -2.58492e-07     -1.23288 
         -50       1.9937 -1.30162e-06 -2.60809e-07     -1.23287 
         -50      2.08131 -1.31415e-06 -2.63951e-07     -1.23286 
         -50      2.17081 -1.32712e-06 -2.68251e-07     -1.23285 
         -50      2.26223 -1.34079e-06  -2.7388e-07     -1.23285 
         -50       2.3555 -1.35537e-06 -2.80813e-07     -1.23284 
         -50      2.45065 -1.37095e-06 -2.88819e-07     -1.23283 
         -50      2.54769 -1.38732e-06 -2.97453e-07     -1.23282 
         -50      2.64665 -1.40392e-06 -3.06062e-07     -1.23281 
         -50      2.74746 -1.41968e-06 -3.13804e-07      -1.2328 
         -50      2.85014 -1.43311e-06 -3.19727e-07     -1.23279 
         -50      2.95472 -1.44236e-06 -3.22847e-07     -1.23278 
         -50      3.06122 -1.44545e-06 -3.22284e-07     -1.23276 
         -50      3.16956 -1.44065e-06 -3.17455e-07     -1.23275 
         -50      3.27979  -1.4271e-06 -3.08325e-07     -1.23274 
         -50       3.3919 -1.40571e-06 -2.95735e-07     -1.23272 
         -50      3.50594 -1.38033e-06 -2.81811e-07     -1.23271 
         -50      3.62181 -1.35942e-06  -2.7052e-07     -1.23269 
         -50      3.73958  -1.3581e-06 -2.68276e-07     -1.23267 
         -50      3.85927 -1.34978e-06 -2.58239e-07     -1.23266 
         -50       3.9808  -1.3392e-06 -2.49319e-07     -1.23264 
         -50      4.10422 -1.32348e-06  -2.4235e-07     -1.23262 
         -50      4.22952 -1.30959e-06 -2.36373e-07      -1.2326 
         -50      4.35675 -1.29884e-06 -2.30719e-07     -1.23258 
         -50      4.48582 -1.29173e-06 -2.24923e-07     -1.23255 
         -50      4.61677  -1.2879e-06 -2.19029e-07     -1.23253 
         -50      4.74961 -1.28616e-06 -2.13681e-07     -1.23251 
         -50      4.88438 -1.28477e-06 -2.09916e-07     -1.23248 
         -50      5.02099 -1.28193e-06 -2.08558e-07     -1.23246 
         -50      5.15948 -1.27661e-06 -2.09111e-07     -1.23243 
         -50      5.29985 -1.26975e-06 -2.08035e-07      -1.2324 
         -50      5.44217  -1.2659e-06 -1.96254e-07     -1.23237 
         -50      5.58631 -1.26113e-06 -2.02573e-07     -1.23234 
         -50      5.73233 -1.25375e-06 -1.99314e-07     -1.23231 
         -50      5.88024 -1.24889e-06 -1.94861e-07     -1.23228 
         -50       6.0301 -1.24662e-06 -1.92975e-07     -1.23224 
         -50      6.18178 -1.24474e-06  -1.9268e-07     -1.23221 
         -50      6.33534 -1.24109e-06 -1.90697e-07     -1.23217 
         -50      6.49085 -1.23496e-06 -1.84629e-07     -1.23213 
         -50      6.64818 -1.22737e-06 -1.77034e-07     -1.23209 
         -50      6.80739 -1.21967e-06 -1.76841e-07     -1.23205 
         -50      6.96849 -1.21285e-06  -1.7463e-07     -1.23201 
         -50      7.13154 -1.21828e-06 -1.55365e-07     -1.23196 
         -50      7.29641 -1.21766e-06 -1.67904e-07     -1.23192 
         -50      7.46316 -1.20868e-06 -1.69158e-07     -1.23187 
         -50       7.6318 -1.20212e-06 -1.64648e-07     -1.23182 
         -50      7.80239 -1.19999e-06 -1.61893e-07     -1.23177 
         -50      7.97479 -1.20053e-06 -1.62725e-07     -1.23172 
         -50      8.14908 -1.20068e-06 -1.65818e-07     -1.23167 
         -50      8.32526 -1.19813e-06 -1.68931e-07     -1.23161 
         -50      8.50338 -1.19249e-06 -1.70671e-07     -1.23156 
         -50      8.68333  -1.1857e-06  -1.7165e-07      -1.2315 
         -50      8.86515 -1.18667e-06 -1.73774e-07     -1.23144 
         -50      9.04894 -1.18917e-06 -1.75526e-07     -1.23138 
         -50      9.23453 -1.18381e-06 -1.76412e-07     -1.23131 
         -50      9.42201 -1.18068e-06 -1.81569e-07     -1.23125 
         -50      9.61137 -1.17846e-06 -1.70727e-07     -1.23118 
         -50      9.80269 -1.17941e-06 -1.71297e-07     -1.23111 
         -50      9.99583 -1.18121e-06 -1.79665e-07     -1.23104 
         -50      10.1908 -1.18218e-06 -1.90532e-07     -1.23097 
         -50      10.3877 -1.18137e-06 -1.99107e-07     -1.23089 
         -50      10.5866 -1.17855e-06 -2.02681e-07     -1.23081 
         -50      10.7873  -1.1742e-06 -2.01427e-07     -1.23073 
         -50      10.9898 -1.16933e-06 -1.98256e-07     -1.23065 
         -50      11.1943 -1.16526e-06 -1.97483e-07     -1.23057 
         -50      11.4007  -1.1633e-06 -2.02122e-07     -1.23048 
         -50      11.6089 -1.16424e-06 -2.09517e-07     -1.23039 
         -50       11.819 -1.16774e-06 -2.05105e-07      -1.2303 
         -50       12.031 -1.16568e-06 -1.99076e-07     -1.23021 
         -50      12.2449 -1.16141e-06 -2.07087e-07     -1.23012 
         -50      12.4606 -1.15785e-06 -2.10494e-07     -1.23002 
         -50      12.6782 -1.15432e-06 -2.08723e-07     -1.22992 
         -50      12.8978 -1.15334e-06 -2.01409e-07     -1.22982 
         -50      13.1192 -1.15294e-06 -2.01537e-07     -1.22971 
         -50      13.3425 -1.14821e-06 -2.08307e-07     -1.22961 
         -50      13.5677 -1.14341e-06 -2.15186e-07      -1.2295 
         -50      13.7948 -1.13961e-06 -2.21881e-07     -1.22939 
         -50      14.0237   -1.137e-06 -2.28199e-07     -1.22927 
         -50      14.2546 -1.13526e-06  -2.3408e-07     -1.22916 
         -50      14.4873 -1.13382e-06 -2.39586e-07     -1.22904 
         -50      14.7219 -1.13212e-06 -2.44891e-07     -1.22892 
         -50      14.9584  -1.1298e-06 -2.50252e-07     -1.22879 
         -50      15.1968 -1.12684e-06 -2.55984e-07     -1.22867 
         -50      15.4371 -1.12351e-06 -2.62389e-07     -1.22854 
         -50      15.6792 -1.12041e-06  -2.6968e-07     -1.22841 
         -50      15.9232 -1.11815e-06 -2.77889e-07     -1.22827 
         -50      16.1691 -1.11141e-06  -2.7933e-07     -1.22813 
         -50       16.417 -1.10836e-06 -2.81484e-07     -1.22799 
         -50      16.6666 -1.10812e-06 -2.85188e-07     -1.22785 
         -50      16.9182 -1.10862e-06 -2.89334e-07     -1.22771 
         -50      17.1716 -1.10822e-06 -2.91739e-07     -1.22756 
         -50       17.427 -1.10517e-06 -2.87909e-07     -1.22741 
         -50      17.6842 -1.10353e-06 -2.91139e-07     -1.22725 
         -50      17.9433 -1.10051e-06 -2.99263e-07      -1.2271 
         -50      18.2042 -1.09523e-06 -3.05894e-07     -1.22694 
         -50      18.4672 -1.08943e-06 -3.11386e-07     -1.22677 
         -50      18.7319 -1.08452e-06 -3.15656e-07     -1.22661 
         -50      18.9985 -1.08113e-06 -3.18413e-07     -1.22644 
         -50       19.267 -1.07851e-06 -3.19604e-07     -1.22627 
         -50      19.5375 -1.07355e-06 -3.20146e-07      -1.2261 
         -50      19.8098 -1.06206e-06 -3.22176e-07     -1.22592 
         -50       20.084 -1.06682e-06 -3.20212e-07     -1.22574 
         -50      20.3601 -1.06603e-06 -3.21436e-07     -1.22556 
         -50       20.638 -1.06224e-06 -3.24894e-07     -1.22537 
         -50      20.9178 -1.05728e-06 -3.29748e-07     -1.22518 
         -50      21.1995 -1.05234e-06 -3.35285e-07     -1.22499 
         -50      21.4832 -1.04807e-06 -3.40921e-07      -1.2248 
         -50      21.7687 -1.04473e-06 -3.46202e-07      -1.2246 
         -50       22.056 -1.04222e-06 -3.50814e-07      -1.2244 
         -50      22.3452 -1.04027e-06 -3.54573e-07      -1.2242 
         -50      22.6365 -1.03846e-06 -3.57412e-07     -1.22399 
         -50      22.9295 -1.03639e-06 -3.59365e-07     -1.22378 
         -50      23.2243  -1.0337e-06 -3.60552e-07     -1.22357 
         -50      23.5211 -1.03021e-06 -3.61139e-07     -1.22336 
         -50      23.8199 -1.02597e-06 -3.61309e-07     -1.22314 
         -50      24.1204  -1.0213e-06 -3.61208e-07     -1.22292 
         -50      24.4228 -1.01688e-06 -3.60893e-07     -1.22269 
         -50      24.7272 -1.01375e-06 -3.60262e-07     -1.22247 
         -50      25.0334 -1.01336e-06 -3.58978e-07     -1.22224 
         -50      25.3415  -1.0175e-06 -3.56378e-07     -1.22201 
         -50      25.6514 -1.02095e-06 -3.56251e-07     -1.22177 
         -50      25.9634 -1.00514e-06 -3.65995e-07     -1.22153 
         -50      26.2771 -9.99623e-07 -3.71336e-07     -1.22129 
         -50      26.5927 -9.88265e-07 -3.78259e-07     -1.22105 
         -50      26.9102 -9.74564e-07 -3.80601e-07      -1.2208 
         -50      27.2297 -9.64404e-07 -3.82996e-07     -1.22055 
         -50       27.551 -9.57808e-07 -3.85558e-07      -1.2203 
         -50      27.8741 -9.53446e-07 -3.88343e-07     -1.22004 
         -50      28.1991 -9.50593e-07 -3.91609e-07     -1.21979 
         -50      28.5262  -9.4854e-07 -3.95374e-07     -1.21952 
         -50       28.855 -9.46656e-07 -3.99483e-07     -1.21926 
         -50      29.1856  -9.4442e-07 -4.03687e-07     -1.21899 
         -50      29.5183 -9.41458e-07 -4.07693e-07     -1.21872 
         -50      29.8528  -9.3757e-07 -4.11222e-07     -1.21845 
         -50      30.1891 -9.32727e-07 -4.14057e-07     -1.21818 
         -50      30.5273 -9.27073e-07 -4.16073e-07      -1.2179 
         -50      30.8676 -9.20897e-07 -4.17258e-07     -1.21762 
         -50      31.2096 -9.14599e-07 -4.17728e-07     -1.21734 
         -50      31.5534 -9.08616e-07 -4.17711e-07     -1.21705 
         -50      31.8992 -9.03347e-07 -4.17534e-07     -1.21676 
         -50      32.2469 -8.99039e-07 -4.17568e-07     -1.21647 
         -50      32.5965 -8.95658e-07 -4.18175e-07     -1.21618 
         -50      32.9479 -8.92715e-07 -4.19612e-07     -1.21589 
         -50      33.3012 -8.89073e-07 -4.21923e-07     -1.21559 
         -50      33.6565 -8.82713e-07 -4.24797e-07     -1.21529 
         -50      34.0135 -8.70475e-07 -4.27393e-07     -1.21498 
         -50      34.3725 -8.61136e-07  -4.3028e-07     -1.21468 
         -50      34.7334 -8.58295e-07 -4.36246e-07     -1.21437 
         -50      35.0962 -8.57675e-07 -4.43801e-07     -1.21406 
         -50      35.4608 -8.53121e-07 -4.44641e-07     -1.21375 
         -50      35.8272 -8.46191e-07 -4.42214e-07     -1.21343 
         -50      36.1957 -8.40219e-07 -4.40815e-07     -1.21312 
         -50       36.566 -8.35326e-07 -4.39917e-07      -1.2128 
         -50      36.9381 -8.31319e-07 -4.39253e-07     -1.21248 
         -50      37.3121 -8.27834e-07 -4.38734e-07     -1.21215 
         -50      37.6882 -8.24451e-07 -4.38383e-07     -1.21183 
         -50       38.066 -8.20795e-07  -4.3827e-07      -1.2115 
         -50      38.4456 -8.16602e-07 -4.38465e-07     -1.21117 
         -50      38.8272 -8.11766e-07 -4.39007e-07     -1.21084 
         -50      39.2108 -8.06355e-07 -4.39883e-07      -1.2105 
         -50      39.5961 -8.00599e-07 -4.41034e-07     -1.21017 
         -50      39.9833 -7.94821e-07  -4.4237e-07     -1.20983 
         -50      40.3724 -7.89348e-07 -4.43818e-07     -1.20949 
         -50      40.7635 -7.84366e-07 -4.45387e-07     -1.20915 
         -50      41.1564  -7.7974e-07  -4.4726e-07     -1.20881 
         -50      41.5511 -7.74752e-07 -4.49918e-07     -1.20846 
         -50      41.9479 -7.67808e-07 -4.54295e-07     -1.20812 
         -50      42.3464 -7.56862e-07 -4.60991e-07     -1.20777 
         -50      42.7468 -7.52905e-07  -4.5989e-07     -1.20742 
         -50      43.1491 -7.50765e-07 -4.59414e-07     -1.20707 
         -50      43.5534 -7.48706e-07 -4.59032e-07     -1.20671 
         -50      43.9595 -7.45567e-07 -4.58548e-07     -1.20636 
         -50      44.3674 -7.40698e-07 -4.58003e-07       -1.206 
         -50      44.7772  -7.3387e-07 -4.57561e-07     -1.20565 
         -50      45.1891 -7.25154e-07 -4.57398e-07     -1.20529 
         -50      45.6027 -7.14784e-07 -4.57574e-07     -1.20493 
         -50      46.0181 -7.08713e-07 -4.55796e-07     -1.20457 
         -50      46.4355 -7.08343e-07 -4.51998e-07      -1.2042 
         -50      46.8549 -7.05387e-07 -4.49638e-07     -1.20384 
         -50       47.276 -7.00906e-07 -4.48478e-07     -1.20348 
         -50       47.699 -6.95682e-07 -4.48313e-07     -1.20311 
         -50      48.1241  -6.9021e-07 -4.48942e-07     -1.20274 
         -50      48.5508 -6.84743e-07 -4.50138e-07     -1.20237 
         -50      48.9795 -6.79328e-07 -4.51638e-07     -1.20201 
         -50        49.41 -6.73896e-07  -4.5313e-07     -1.20164 
         -50      49.8426 -6.68382e-07 -4.54257e-07     -1.20126 
         -50      50.2769 -6.62879e-07 -4.54629e-07     -1.20089 
         -50      50.7131 -6.57818e-07  -4.5385e-07     -1.20052 
         -50      51.1512 -6.54206e-07 -4.51551e-07     -1.20015 
         -50      51.5914 -6.53899e-07 -4.47446e-07     -1.19977 
         -50      52.0332 -6.48882e-07 -4.46417e-07      -1.1994 
         -50      52.4769 -6.43124e-07 -4.46318e-07     -1.19902 
         -50      52.9225 -6.38561e-07 -4.45875e-07     -1.19865 
         -50      53.3702 -6.34629e-07 -4.45179e-07     -1.19827 
         -50      53.8196 -6.30939e-07 -4.44333e-07     -1.19789 
         -50      54.2709  -6.2724e-07 -4.43434e-07     -1.19751 
         -50      54.7242 -6.23394e-07  -4.4255e-07     -1.19714 
         -50      55.1792 -6.19355e-07 -4.41716e-07     -1.19676 
         -50      55.6362  -6.1514e-07 -4.40922e-07     -1.19638 
         -50       56.095 -6.10803e-07  -4.4012e-07       -1.196 
         -50      56.5558 -6.06419e-07 -4.39229e-07     -1.19562 
         -50      57.0184 -6.02066e-07 -4.38148e-07     -1.19524 
         -50      57.4829 -5.97798e-07 -4.36783e-07     -1.19486 
         -50      57.9492 -5.93643e-07 -4.35079e-07     -1.19448 
         -50      58.4176 -5.89578e-07 -4.33058e-07      -1.1941 
         -50      58.8877 -5.85537e-07 -4.30873e-07     -1.19372 
         -50      59.3597 -5.81388e-07  -4.2887e-07     -1.19334 
         -50      59.8336 -5.74398e-07 -4.23947e-07     -1.19296 
         -50      60.3096 -5.67878e-07 -4.19834e-07     -1.19258 
         -50      60.7872 -5.62108e-07 -4.17395e-07      -1.1922 
         -50      61.2667 -5.56738e-07 -4.16201e-07     -1.19182 
         -50      61.7484 -5.51785e-07 -4.15797e-07     -1.19144 
         -50      62.2317 -5.47546e-07 -4.15739e-07     -1.19106 
         -50      62.7168 -5.44482e-07 -4.15626e-07     -1.19068 
         -50      63.2039 -5.43099e-07 -4.15159e-07      -1.1903 
         -50      63.6931 -5.41204e-07  -4.1103e-07     -1.18992 
         -50      64.1839 -5.37452e-07 -4.06854e-07     -1.18954 
         -50      64.6766 -5.33576e-07 -4.05159e-07     -1.18917 
         -50      65.1712 -5.29477e-07 -4.04641e-07     -1.18879 
         -50      65.6679 -5.25087e-07 -4.04349e-07     -1.18841 
         -50      66.1663 -5.20394e-07 -4.03657e-07     -1.18804 
         -50      66.6665 -5.15449e-07 -4.02225e-07     -1.18766 
         -50      67.1687 -5.10373e-07 -3.99954e-07     -1.18729 
         -50      67.6729 -5.05353e-07 -3.96947e-07     -1.18691 
         -50      68.1788  -5.0063e-07 -3.93455e-07     -1.18654 
         -50      68.6866 -4.96464e-07 -3.89819e-07     -1.18616 
         -50      69.1963 -4.93097e-07 -3.86412e-07     -1.18579 
         -50      69.7081 -4.90709e-07 -3.83571e-07     -1.18542 
         -50      70.2215 -4.89346e-07 -3.81529e-07     -1.18505 
         -50      70.7368 -4.88841e-07 -3.80334e-07     -1.18468 
         -50      71.2543  -4.8872e-07 -3.79764e-07     -1.18431 
         -50      71.7734  -4.8809e-07 -3.79243e-07     -1.18394 
         -50      72.2943  -4.8551e-07 -3.77739e-07     -1.18358 
         -50      72.8172 -4.78841e-07 -3.73662e-07     -1.18321 
         -50      73.3422 -4.65768e-07 -3.64844e-07     -1.18285 
         -50      73.8688 -4.63626e-07 -3.58342e-07     -1.18249 
         -50      74.3973 -4.60482e-07 -3.57095e-07     -1.18212 
         -50      74.9277 -4.57741e-07 -3.59351e-07     -1.18176 
         -50      75.4602  -4.5755e-07 -3.62837e-07      -1.1814 
         -50      75.9944 -4.58828e-07  -3.5984e-07     -1.18104 
         -50      76.5305 -4.57482e-07 -3.54745e-07     -1.18069 
         -50      77.0684 -4.54859e-07 -3.50581e-07     -1.18033 
         -50      77.6084 -4.51559e-07 -3.47198e-07     -1.17998 
         -50      78.1502 -4.47815e-07 -3.44544e-07     -1.17962 
         -50      78.6937 -4.43533e-07  -3.4265e-07     -1.17927 
         -50      79.2394 -4.38338e-07 -3.41615e-07     -1.17892 
         -50      79.7868 -4.33618e-07 -3.40338e-07     -1.17857 
         -50      80.3361  -4.3425e-07 -3.35663e-07     -1.17822 
         -50      80.8872 -4.33228e-07  -3.3208e-07     -1.17788 
         -50      81.4404 -4.31022e-07 -3.29316e-07     -1.17754 
         -50      81.9953  -4.2807e-07 -3.27114e-07     -1.17719 
         -50      82.5521 -4.24751e-07 -3.25241e-07     -1.17685 
         -50      83.1108 -4.21369e-07 -3.23498e-07     -1.17651 
         -50      83.6715 -4.18135e-07  -3.2173e-07     -1.17618 
         -50       84.234 -4.15171e-07 -3.19831e-07     -1.17584 
         -50      84.7983 -4.12499e-07 -3.17741e-07     -1.17551 
         -50      85.3645 -4.10055e-07 -3.15447e-07     -1.17518 
         -50      85.9328 -4.07706e-07 -3.12976e-07     -1.17485 
         -50      86.5028  -4.0528e-07 -3.10392e-07     -1.17452 
         -50      87.0747 -4.02593e-07 -3.07773e-07     -1.17419 
         -50      87.6486 -3.99499e-07 -3.05197e-07     -1.17387 
         -50      88.2243 -3.95948e-07 -3.02726e-07     -1.17354 
         -50      88.8018 -3.92049e-07  -3.0037e-07     -1.17322 
         -50      89.3812 -3.88151e-07 -2.98061e-07     -1.17291 
         -50      89.9627 -3.84936e-07  -2.9561e-07     -1.17259 
         -50      90.5458 -3.83525e-07 -2.92674e-07     -1.17228 
         -50      91.1309 -3.84163e-07 -2.89331e-07     -1.17196 
         -50      91.7178 -3.80564e-07  -2.8763e-07     -1.17166 
         -50      92.3069 -3.77023e-07 -2.85299e-07     -1.17135 
         -50      92.8976 -3.73878e-07 -2.82467e-07     -1.17104 
         -50      93.4901 -3.71292e-07 -2.79265e-07     -1.17074 
         -50      94.0846 -3.69269e-07 -2.75821e-07     -1.17044 
         -50      94.6812 -3.67681e-07 -2.72235e-07     -1.17014 
         -50      95.2794 -3.66285e-07 -2.68576e-07     -1.16984 
         -50      95.8796 -3.64752e-07 -2.64859e-07     -1.16955 
         -50      96.4818  -3.6268e-07 -2.61045e-07     -1.16926 
         -50      97.0857 -3.59635e-07 -2.57039e-07     -1.16897 
         -50      97.6915 -3.55164e-07 -2.52677e-07     -1.16869 
         -50      98.2991 -3.51458e-07 -2.48868e-07      -1.1684 
         -50      98.9089 -3.52915e-07 -2.47405e-07     -1.16812 
         -50      99.5203 -3.53409e-07 -2.45538e-07     -1.16784 
         -50      100.134 -3.53127e-07 -2.43272e-07     -1.16757 
         -50      100.749 -3.52245e-07  -2.4065e-07     -1.16729 
         -50      101.366 -3.50926e-07  -2.3774e-07     -1.16702 
         -50      101.985  -3.4932e-07 -2.34628e-07     -1.16675 
         -50      102.606 -3.47556e-07 -2.31404e-07     -1.16649 
         -50      103.229 -3.45743e-07 -2.28157e-07     -1.16623 
         -50      103.854 -3.43966e-07 -2.24965e-07     -1.16597 
         -50       104.48 -3.42287e-07 -2.21892e-07     -1.16571 
         -50      105.108  -3.4074e-07 -2.18976e-07     -1.16546 
         -50      105.739 -3.39331e-07 -2.16229e-07      -1.1652 
         -50      106.371 -3.38039e-07 -2.13627e-07     -1.16495 
         -50      107.005 -3.36816e-07 -2.11119e-07     -1.16471 
         -50      107.641 -3.35582e-07 -2.08612e-07     -1.16447 
         -50      108.279 -3.34234e-07 -2.05978e-07     -1.16423 
         -50      108.919 -3.32642e-07 -2.03058e-07     -1.16399 
         -50       109.56 -3.30651e-07 -1.99658e-07     -1.16376 
         -50      110.204 -3.28086e-07 -1.95559e-07     -1.16353 
         -50      110.849 -3.24752e-07 -1.90517e-07      -1.1633 
         -50      111.497 -3.20446e-07 -1.84284e-07     -1.16307 
         -50      112.146 -3.19608e-07 -1.81676e-07     -1.16285 
         -50      112.797 -3.21482e-07 -1.82124e-07     -1.16264 
         -50       113.45  -3.2147e-07 -1.80565e-07     -1.16242 
         -50      114.105  -3.2027e-07 -1.77654e-07     -1.16221 
         -50      114.761  -3.1842e-07 -1.73929e-07       -1.162 
         -50       115.42 -3.16322e-07 -1.69823e-07     -1.16179 
         -50      116.081 -3.14266e-07 -1.65662e-07     -1.16159 
         -50      116.743  -3.1245e-07 -1.61683e-07     -1.16139 
         -50      117.407 -3.10987e-07 -1.58022e-07      -1.1612 
         -50      118.073  -3.0991e-07 -1.54729e-07     -1.16101 
         -50      118.741 -3.09178e-07 -1.51772e-07     -1.16082 
         -50      119.411 -3.08659e-07 -1.49034e-07     -1.16064 
         -50      120.083 -3.08123e-07 -1.46323e-07     -1.16045 
         -50      120.757 -3.07215e-07 -1.43368e-07     -1.16028 
         -50      121.432 -3.05429e-07 -1.39832e-07      -1.1601 
         -50       122.11  -3.0207e-07 -1.35302e-07     -1.15993 
         -50      122.789 -2.96202e-07 -1.29294e-07     -1.15976 
         -50       123.47 -3.01411e-07 -1.27507e-07      -1.1596 
         -50      124.153 -3.03931e-07 -1.25664e-07     -1.15944 
         -50      124.838 -3.04357e-07 -1.23665e-07     -1.15929 
         -50      125.525 -3.03265e-07 -1.21441e-07     -1.15914 
         -50      126.214 -3.01158e-07 -1.18945e-07     -1.15899 
         -50      126.905 -2.98475e-07 -1.16149e-07     -1.15884 
         -50      127.597 -2.95585e-07 -1.13046e-07      -1.1587 
         -50      128.292 -2.92786e-07 -1.09652e-07     -1.15857 
         -50      128.988 -2.90317e-07 -1.06015e-07     -1.15843 
         -50      129.686 -2.88343e-07 -1.02204e-07      -1.1583 
         -50      130.386 -2.86968e-07 -9.83237e-08     -1.15818 
         -50      131.088 -2.86229e-07 -9.45044e-08     -1.15806 
         -50      131.792   -2.861e-07 -9.09164e-08     -1.15794 
         -50      132.497 -2.86494e-07 -8.77588e-08     -1.15782 
         -50      133.205 -2.87259e-07 -8.52677e-08     -1.15771 
         -50      133.915 -2.88184e-07 -8.37151e-08      -1.1576 
         -50      134.626 -2.87957e-07 -8.19734e-08      -1.1575 
         -50      135.339 -2.89274e-07 -7.75933e-08      -1.1574 
         -50      136.054 -2.94424e-07 -7.37845e-08     -1.15731 
         -50      136.771 -3.00194e-07 -7.03287e-08     -1.15722 
         -50       137.49 -3.04125e-07 -6.70541e-08     -1.15713 
         -50      138.211 -3.04634e-07 -6.38255e-08     -1.15705 
         -50      138.934 -3.01048e-07 -6.05466e-08     -1.15697 
         -50      139.658 -2.93598e-07 -5.71599e-08     -1.15689 
         -50      140.385 -2.83332e-07 -5.36362e-08     -1.15682 
         -50      141.113 -2.71974e-07 -4.99742e-08     -1.15676 
         -50      141.843 -2.61699e-07 -4.61927e-08      -1.1567 
         -50      142.575 -2.54856e-07 -4.23301e-08     -1.15664 
         -50      143.309 -2.53574e-07 -3.84281e-08     -1.15659 
         -50      144.045 -2.59322e-07 -3.45294e-08     -1.15655 
         -50      144.783  -2.7237e-07 -3.06651e-08     -1.15651 
         -50      145.523 -2.91136e-07 -2.68511e-08     -1.15647 
         -50      146.264  -3.1149e-07 -2.30666e-08     -1.15644 
         -50      147.007  -3.2591e-07 -1.92481e-08     -1.15641 
         -50      147.753 -3.22551e-07 -1.52724e-08     -1.15639 
         -50        148.5 -2.84219e-07 -1.09479e-08     -1.15638 
         -50      149.249 -1.87221e-07 -5.98854e-09     -1.15636 
         -50          150 -1.69194e-21 -4.60103e-23     -1.15636 
         -25            0           -0           -0     -1.18479 
         -25     0.000942 -1.83337e-07 -2.29182e-11     -1.18479 
         -25     0.003768 -5.82824e-07 -7.51502e-11     -1.18479 
         -25     0.008478 -8.95168e-07  -1.1702e-10     -1.18479 
         -25     0.015075 -9.63172e-07 -1.06786e-10     -1.18479 
         -25     0.023553 -9.11434e-07 -1.43686e-11     -1.18479 
         -25     0.033916 -9.40535e-07   1.8401e-10     -1.18479 
         -25     0.046163 -1.01309e-06  5.19112e-10     -1.18479 
         -25       0.0603 -9.80943e-07  1.02322e-09     -1.18479 
         -25     0.076315 -1.06637e-06  1.71711e-09     -1.18479 
         -25     0.094215 -1.06791e-06  2.64393e-09     -1.18479 
         -25     0.113999 -1.11106e-06  3.77846e-09     -1.18479 
         -25     0.135675 -1.14709e-06  5.12668e-09     -1.18479 
         -25     0.159228 -1.19132e-06  6.66422e-09     -1.18479 
         -25     0.184664 -1.23371e-06  8.36012e-09     -1.18479 
         -25     0.211985 -1.27045e-06  1.01802e-08     -1.18479 
         -25     0.241201 -1.31137e-06   1.2089e-08     -1.18479 
         -25      0.27229 -1.34348e-06  1.40543e-08     -1.18479 
         -25     0.305263 -1.37451e-06  1.60817e-08     -1.18479 
         -25     0.340135 -1.40143e-06  1.82015e-08     -1.18479 
         -25     0.376877 -1.42474e-06  2.04009e-08     -1.18479 
         -25     0.415503 -1.44432e-06   2.2622e-08     -1.18479 
         -25     0.456013 -1.45973e-06  2.47705e-08     -1.18479 
         -25     0.498424 -1.47059e-06  2.67496e-08     -1.18479 
         -25     0.542703 -1.47685e-06  2.85134e-08     -1.18479 
         -25     0.588866 -1.47837e-06  3.01615e-08     -1.18479 
         -25     0.636912 -1.47451e-06  3.22896e-08     -1.18479 
         -25     0.686864 -1.46562e-06  3.49506e-08     -1.18479 
         -25     0.738679 -1.45159e-06  3.78157e-08     -1.18478 
         -25     0.792379 -1.43274e-06  4.07628e-08     -1.18478 
         -25     0.847962 -1.40963e-06  4.36833e-08     -1.18478 
         -25     0.905453 -1.38295e-06  4.64903e-08     -1.18478 
         -25     0.964806 -1.35351e-06  4.91177e-08     -1.18478 
         -25      1.02604 -1.32214e-06  5.15298e-08     -1.18478 
         -25      1.08919 -1.28961e-06  5.37177e-08     -1.18478 
         -25      1.15419 -1.25663e-06  5.56961e-08     -1.18478 
         -25      1.22108 -1.22368e-06  5.75033e-08     -1.18478 
         -25      1.28985 -1.19109e-06  5.91915e-08     -1.18478 
         -25      1.36054 -1.15906e-06  6.08179e-08     -1.18478 
         -25      1.43308 -1.12785e-06  6.24296e-08     -1.18477 
         -25      1.50751 -1.09825e-06  6.39922e-08     -1.18477 
         -25      1.58382 -1.07486e-06  6.30468e-08     -1.18477 
         -25      1.66204 -1.04147e-06  6.42104e-08     -1.18477 
         -25      1.74212 -1.00406e-06  6.62801e-08     -1.18477 
         -25      1.82409 -9.67362e-07  6.83042e-08     -1.18476 
         -25      1.90793 -9.34922e-07  6.95945e-08     -1.18476 
         -25       1.9937 -9.09023e-07  6.97287e-08     -1.18476 
         -25      2.08131 -8.90794e-07  6.85428e-08     -1.18476 
         -25      2.17081 -8.80248e-07  6.61112e-08     -1.18475 
         -25      2.26223 -8.76483e-07   6.2713e-08     -1.18475 
         -25       2.3555 -8.77881e-07   5.8795e-08     -1.18475 
         -25      2.45065 -8.82355e-07  5.49112e-08     -1.18474 
         -25      2.54769 -8.87637e-07  5.16674e-08     -1.18474 