Variables = x, y, u, v, p

Zone, I=3600, F=POINT
         -50            0            0            0     0.903687 
         -50     0.000942  3.50707e-07  5.56711e-11     0.903687 
         -50     0.003768  1.07972e-06  1.95874e-10     0.903687 
         -50     0.008478  1.55265e-06  3.61908e-10     0.903687 
         -50     0.015075  1.48949e-06  5.07926e-10     0.903687 
         -50     0.023553  1.23715e-06  6.23867e-10     0.903687 
         -50     0.033916  1.25276e-06  7.10638e-10     0.903687 
         -50     0.046163  1.37849e-06  7.35286e-10     0.903687 
         -50       0.0603  1.21194e-06  6.40091e-10     0.903687 
         -50     0.076315  1.31146e-06  3.94008e-10     0.903687 
         -50     0.094215  1.20695e-06 -9.08506e-11     0.903687 
         -50     0.113999  1.19881e-06  -8.2103e-10     0.903687 
         -50     0.135675   1.1782e-06  -1.8525e-09     0.903687 
         -50     0.159228  1.17897e-06  -3.1971e-09     0.903687 
         -50     0.184664  1.18274e-06 -4.85868e-09     0.903687 
         -50     0.211985   1.1827e-06 -6.84673e-09     0.903687 
         -50     0.241201  1.19933e-06 -9.15846e-09     0.903687 
         -50      0.27229  1.20671e-06 -1.18772e-08     0.903686 
         -50     0.305263  1.21982e-06 -1.51332e-08     0.903686 
         -50     0.340135  1.23175e-06 -1.89188e-08     0.903686 
         -50     0.376877   1.2428e-06 -2.34206e-08     0.903685 
         -50     0.415503   1.2523e-06 -2.88261e-08     0.903685 
         -50     0.456013  1.25936e-06 -3.50978e-08     0.903684 
         -50     0.498424  1.26355e-06 -4.18704e-08     0.903684 
         -50     0.542703  1.26533e-06 -4.86764e-08     0.903683 
         -50     0.588866  1.26519e-06 -5.59018e-08     0.903682 
         -50     0.636912  1.26295e-06 -6.33595e-08     0.903681 
         -50     0.686864  1.26004e-06 -6.89266e-08     0.903681 
         -50     0.738679  1.25741e-06 -7.38877e-08     0.903679 
         -50     0.792379  1.25641e-06 -7.85409e-08     0.903678 
         -50     0.847962  1.25823e-06 -8.30723e-08     0.903677 
         -50     0.905453  1.26376e-06 -8.75652e-08     0.903675 
         -50     0.964806  1.27355e-06 -9.20087e-08     0.903674 
         -50      1.02604  1.28769e-06 -9.63361e-08     0.903672 
         -50      1.08919  1.30577e-06 -1.00454e-07      0.90367 
         -50      1.15419  1.32688e-06 -1.04275e-07     0.903668 
         -50      1.22108  1.34965e-06 -1.07762e-07     0.903666 
         -50      1.28985  1.37241e-06 -1.10934e-07     0.903663 
         -50      1.36054   1.3934e-06 -1.13853e-07     0.903661 
         -50      1.43308  1.41119e-06  -1.1655e-07     0.903658 
         -50      1.50751  1.42515e-06 -1.18802e-07     0.903655 
         -50      1.58382   1.4293e-06 -1.16591e-07     0.903651 
         -50      1.66204  1.43048e-06 -1.15955e-07     0.903647 
         -50      1.74212  1.43004e-06 -1.15815e-07     0.903644 
         -50      1.82409  1.42939e-06 -1.15178e-07     0.903639 
         -50      1.90793  1.42992e-06 -1.13175e-07     0.903635 
         -50       1.9937  1.43291e-06 -1.09089e-07      0.90363 
         -50      2.08131  1.43943e-06 -1.02402e-07     0.903625 
         -50      2.17081  1.45027e-06 -9.28056e-08     0.903619 
         -50      2.26223  1.46586e-06 -8.02306e-08     0.903613 
         -50       2.3555  1.48614e-06 -6.48776e-08     0.903607 
         -50      2.45065  1.51055e-06 -4.71923e-08     0.903601 
         -50      2.54769  1.53796e-06 -2.78725e-08     0.903594 
         -50      2.64665  1.56671e-06 -7.82767e-09     0.903586 
         -50      2.74746  1.59462e-06   1.1838e-08     0.903578 
         -50      2.85014  1.61918e-06  2.99516e-08      0.90357 
         -50      2.95472  1.63772e-06  4.53474e-08     0.903561 
         -50      3.06122  1.64781e-06  5.70235e-08     0.903552 
         -50      3.16956  1.64765e-06  6.43152e-08     0.903543 
         -50      3.27979  1.63682e-06  6.71645e-08     0.903532 
         -50       3.3919  1.61708e-06   6.6401e-08     0.903522 
         -50      3.50594  1.59349e-06  6.41167e-08      0.90351 
         -50      3.62181  1.57583e-06  6.41201e-08     0.903498 
         -50      3.73958  1.58031e-06  7.24686e-08     0.903486 
         -50      3.85927   1.5771e-06  8.96739e-08     0.903473 
         -50       3.9808  1.56483e-06  1.01436e-07     0.903459 
         -50      4.10422  1.55582e-06  1.02493e-07     0.903445 
         -50      4.22952  1.55072e-06  1.09769e-07      0.90343 
         -50      4.35675  1.54722e-06  1.21683e-07     0.903415 
         -50      4.48582  1.54424e-06  1.34976e-07     0.903398 
         -50      4.61677  1.54155e-06  1.46513e-07     0.903381 
         -50      4.74961   1.5394e-06  1.54607e-07     0.903363 
         -50      4.88438  1.53809e-06  1.59713e-07     0.903345 
         -50      5.02099  1.53748e-06  1.64211e-07     0.903326 
         -50      5.15948  1.53655e-06  1.70996e-07     0.903305 
         -50      5.29985  1.53282e-06  1.80518e-07     0.903285 
         -50      5.44217  1.52191e-06  1.85898e-07     0.903263 
         -50      5.58631  1.50225e-06  1.98416e-07      0.90324 
         -50      5.73233  1.48697e-06  2.02222e-07     0.903217 
         -50      5.88024  1.47722e-06  2.07618e-07     0.903192 
         -50       6.0301  1.47141e-06  2.16532e-07     0.903167 
         -50      6.18178  1.46696e-06  2.26506e-07     0.903141 
         -50      6.33534  1.46152e-06   2.3466e-07     0.903113 
         -50      6.49085  1.45391e-06  2.39692e-07     0.903085 
         -50      6.64818   1.4445e-06  2.41342e-07     0.903056 
         -50      6.80739   1.4385e-06  2.43029e-07     0.903026 
         -50      6.96849  1.44174e-06  2.50843e-07     0.902994 
         -50      7.13154  1.43565e-06   2.5568e-07     0.902962 
         -50      7.29641  1.43106e-06   2.5153e-07     0.902929 
         -50      7.46316  1.43059e-06  2.47478e-07     0.902894 
         -50       7.6318   1.4284e-06  2.48583e-07     0.902858 
         -50      7.80239  1.42383e-06  2.54515e-07     0.902821 
         -50      7.97479  1.41818e-06  2.63232e-07     0.902783 
         -50      8.14908  1.41305e-06   2.7191e-07     0.902744 
         -50      8.32526  1.40913e-06    2.779e-07     0.902703 
         -50      8.50338  1.40563e-06  2.79711e-07     0.902661 
         -50      8.68333  1.40048e-06  2.77991e-07     0.902618 
         -50      8.86515  1.39162e-06  2.77139e-07     0.902574 
         -50      9.04894  1.38165e-06   2.8576e-07     0.902528 
         -50      9.23453  1.39086e-06  2.86195e-07     0.902481 
         -50      9.42201  1.38406e-06  3.04121e-07     0.902433 
         -50      9.61137  1.37753e-06  2.97538e-07     0.902383 
         -50      9.80269  1.36893e-06  3.03412e-07     0.902332 
         -50      9.99583  1.36294e-06  3.12637e-07     0.902279 
         -50      10.1908   1.3606e-06  3.20746e-07     0.902225 
         -50      10.3877  1.36074e-06  3.26356e-07     0.902169 
         -50      10.5866  1.36125e-06  3.29803e-07     0.902112 
         -50      10.7873  1.36009e-06  3.32012e-07     0.902053 
         -50      10.9898  1.35617e-06  3.33703e-07     0.901993 
         -50      11.1943  1.34979e-06     3.35e-07     0.901931 
         -50      11.4007  1.34269e-06  3.35555e-07     0.901868 
         -50      11.6089  1.33769e-06  3.35292e-07     0.901803 
         -50       11.819  1.33761e-06   3.3588e-07     0.901736 
         -50       12.031  1.33299e-06  3.33229e-07     0.901668 
         -50      12.2449  1.32652e-06  3.33515e-07     0.901598 
         -50      12.4606  1.32274e-06  3.39009e-07     0.901526 
         -50      12.6782  1.31887e-06  3.44926e-07     0.901453 
         -50      12.8978  1.31367e-06  3.48362e-07     0.901378 
         -50      13.1192  1.31347e-06  3.48864e-07     0.901301 
         -50      13.3425  1.31303e-06  3.50779e-07     0.901222 
         -50      13.5677  1.30903e-06  3.52663e-07     0.901142 
         -50      13.7948  1.30311e-06    3.536e-07      0.90106 
         -50      14.0237  1.29674e-06  3.53942e-07     0.900976 
         -50      14.2546  1.29101e-06  3.54544e-07      0.90089 
         -50      14.4873  1.28648e-06  3.56161e-07     0.900802 
         -50      14.7219  1.28313e-06  3.59044e-07     0.900712 
         -50      14.9584  1.28048e-06  3.62777e-07     0.900621 
         -50      15.1968  1.27782e-06   3.6641e-07     0.900527 
         -50      15.4371   1.2746e-06  3.68933e-07     0.900432 
         -50      15.6792   1.2711e-06  3.70136e-07     0.900334 
         -50      15.9232  1.26921e-06  3.71945e-07     0.900235 
         -50      16.1691  1.26921e-06  3.75683e-07     0.900134 
         -50       16.417  1.26392e-06  3.81654e-07      0.90003 
         -50      16.6666  1.25662e-06  3.88447e-07     0.899925 
         -50      16.9182  1.24964e-06  3.94775e-07     0.899818 
         -50      17.1716  1.24371e-06  3.98966e-07     0.899708 
         -50       17.427  1.23784e-06  3.97965e-07     0.899597 
         -50      17.6842   1.2358e-06   4.0103e-07     0.899483 
         -50      17.9433  1.23489e-06   4.0328e-07     0.899368 
         -50      18.2042  1.23258e-06  4.01843e-07      0.89925 
         -50      18.4672   1.2288e-06  3.99877e-07     0.899131 
         -50      18.7319  1.22377e-06  3.99972e-07     0.899009 
         -50      18.9985  1.21818e-06  4.03233e-07     0.898885 
         -50       19.267  1.21311e-06  4.08304e-07     0.898759 
         -50      19.5375  1.20961e-06  4.10345e-07     0.898631 
         -50      19.8098  1.20723e-06  4.03006e-07       0.8985 
         -50       20.084  1.19977e-06  4.15365e-07     0.898368 
         -50      20.3601  1.19541e-06  4.21639e-07     0.898233 
         -50       20.638   1.1924e-06  4.24178e-07     0.898097 
         -50      20.9178  1.18959e-06  4.24814e-07     0.897958 
         -50      21.1995  1.18629e-06   4.2489e-07     0.897817 
         -50      21.4832  1.18218e-06  4.25319e-07     0.897674 
         -50      21.7687  1.17724e-06  4.26635e-07     0.897528 
         -50       22.056  1.17162e-06  4.29052e-07     0.897381 
         -50      22.3452   1.1656e-06   4.3252e-07     0.897231 
         -50      22.6365   1.1595e-06  4.36797e-07     0.897079 
         -50      22.9295  1.15362e-06  4.41506e-07     0.896925 
         -50      23.2243  1.14819e-06  4.46214e-07     0.896769 
         -50      23.5211  1.14337e-06  4.50496e-07     0.896611 
         -50      23.8199  1.13916e-06  4.54018e-07      0.89645 
         -50      24.1204  1.13549e-06  4.56601e-07     0.896288 
         -50      24.4228  1.13221e-06  4.58309e-07     0.896123 
         -50      24.7272  1.12913e-06  4.59522e-07     0.895956 
         -50      25.0334  1.12614e-06  4.61015e-07     0.895787 
         -50      25.3415  1.12332e-06  4.64038e-07     0.895616 
         -50      25.6514  1.11928e-06  4.70194e-07     0.895443 
         -50      25.9634  1.11152e-06   4.7985e-07     0.895267 
         -50      26.2771  1.11099e-06  4.81773e-07     0.895089 
         -50      26.5927  1.10649e-06  4.88025e-07      0.89491 
         -50      26.9102  1.09754e-06  4.92952e-07     0.894728 
         -50      27.2297   1.0884e-06  4.92722e-07     0.894544 
         -50       27.551  1.08003e-06  4.91623e-07     0.894358 
         -50      27.8741  1.07277e-06  4.90682e-07      0.89417 
         -50      28.1991  1.06683e-06   4.8995e-07      0.89398 
         -50      28.5262  1.06212e-06  4.89542e-07     0.893787 
         -50       28.855  1.05831e-06  4.89597e-07     0.893593 
         -50      29.1856  1.05498e-06  4.90244e-07     0.893397 
         -50      29.5183  1.05164e-06  4.91575e-07     0.893199 
         -50      29.8528  1.04786e-06  4.93618e-07     0.892998 
         -50      30.1891  1.04328e-06  4.96326e-07     0.892796 
         -50      30.5273   1.0377e-06  4.99572e-07     0.892592 
         -50      30.8676  1.03107e-06  5.03154e-07     0.892386 
         -50      31.2096  1.02353e-06  5.06803e-07     0.892178 
         -50      31.5534  1.01538e-06  5.10222e-07     0.891968 
         -50      31.8992  1.00709e-06   5.1312e-07     0.891756 
         -50      32.2469  9.99168e-07  5.15269e-07     0.891542 
         -50      32.5965  9.92164e-07  5.16577e-07     0.891326 
         -50      32.9479  9.86487e-07  5.17183e-07     0.891109 
         -50      33.3012  9.82281e-07   5.1756e-07     0.890889 
         -50      33.6565  9.79236e-07  5.18654e-07     0.890668 
         -50      34.0135  9.76362e-07  5.22034e-07     0.890445 
         -50      34.3725   9.7065e-07  5.21662e-07     0.890221 
         -50      34.7334  9.66017e-07   5.2188e-07     0.889994 
         -50      35.0962  9.65343e-07  5.27981e-07     0.889766 
         -50      35.4608  9.59914e-07  5.34205e-07     0.889536 
         -50      35.8272  9.50465e-07  5.36117e-07     0.889305 
         -50      36.1957  9.42172e-07  5.37435e-07     0.889072 
         -50       36.566  9.34665e-07  5.38377e-07     0.888837 
         -50      36.9381  9.27757e-07  5.39039e-07       0.8886 
         -50      37.3121  9.21384e-07  5.39454e-07     0.888363 
         -50      37.6882  9.15537e-07  5.39633e-07     0.888123 
         -50       38.066  9.10215e-07  5.39598e-07     0.887882 
         -50      38.4456   9.0537e-07   5.3941e-07      0.88764 
         -50      38.8272  9.00898e-07  5.39176e-07     0.887396 
         -50      39.2108  8.96614e-07  5.39043e-07      0.88715 
         -50      39.5961  8.92276e-07  5.39187e-07     0.886904 
         -50      39.9833  8.87598e-07  5.39769e-07     0.886655 
         -50      40.3724  8.82305e-07  5.40883e-07     0.886406 
         -50      40.7635  8.76203e-07  5.42485e-07     0.886155 
         -50      41.1564  8.69289e-07  5.44285e-07     0.885903 
         -50      41.5511   8.6186e-07  5.45635e-07     0.885649 
         -50      41.9479   8.5468e-07  5.45376e-07     0.885395 
         -50      42.3464  8.49292e-07  5.42275e-07     0.885139 
         -50      42.7468  8.45283e-07   5.4366e-07     0.884882 
         -50      43.1491  8.39517e-07   5.4483e-07     0.884624 
         -50      43.5534  8.32934e-07  5.45493e-07     0.884364 
         -50      43.9595  8.26476e-07   5.4554e-07     0.884104 
         -50      44.3674  8.20824e-07  5.44964e-07     0.883842 
         -50      44.7772   8.1615e-07  5.43766e-07      0.88358 
         -50      45.1891  8.11872e-07  5.41851e-07     0.883316 
         -50      45.6027  8.06411e-07  5.38931e-07     0.883052 
         -50      46.0181  7.99263e-07  5.36844e-07     0.882786 
         -50      46.4355  7.93448e-07   5.3708e-07      0.88252 
         -50      46.8549  7.87363e-07  5.36812e-07     0.882253 
         -50       47.276  7.81214e-07  5.36487e-07     0.881985 
         -50       47.699  7.75133e-07   5.3631e-07     0.881716 
         -50      48.1241  7.69209e-07  5.36298e-07     0.881446 
         -50      48.5508  7.63518e-07  5.36336e-07     0.881176 
         -50      48.9795  7.58115e-07  5.36227e-07     0.880904 
         -50        49.41  7.53043e-07  5.35756e-07     0.880633 
         -50      49.8426  7.48321e-07  5.34741e-07      0.88036 
         -50      50.2769  7.43931e-07  5.33103e-07     0.880087 
         -50      50.7131  7.39772e-07  5.30921e-07     0.879813 
         -50      51.1512  7.35622e-07  5.28497e-07     0.879539 
         -50      51.5914  7.31076e-07  5.26422e-07     0.879264 
         -50      52.0332  7.24025e-07  5.25682e-07     0.878989 
         -50      52.4769  7.17397e-07  5.24564e-07     0.878713 
         -50      52.9225  7.11596e-07  5.22954e-07     0.878437 
         -50      53.3702  7.06359e-07  5.20999e-07      0.87816 
         -50      53.8196  7.01495e-07   5.1881e-07     0.877883 
         -50      54.2709  6.96856e-07  5.16468e-07     0.877606 
         -50      54.7242  6.92317e-07  5.14036e-07     0.877328 
         -50      55.1792  6.87776e-07  5.11569e-07      0.87705 
         -50      55.6362  6.83136e-07  5.09109e-07     0.876772 
         -50       56.095  6.78318e-07  5.06691e-07     0.876493 
         -50      56.5558  6.73269e-07  5.04341e-07     0.876215 
         -50      57.0184  6.67998e-07  5.02063e-07     0.875936 
         -50      57.4829  6.62588e-07  4.99833e-07     0.875657 
         -50      57.9492  6.57259e-07  4.97578e-07     0.875378 
         -50      58.4176  6.52413e-07   4.9516e-07     0.875099 
         -50      58.8877  6.48714e-07  4.92349e-07      0.87482 
         -50      59.3597  6.47162e-07   4.8879e-07     0.874541 
         -50      59.8336  6.42461e-07   4.8912e-07     0.874262 
         -50      60.3096   6.3587e-07   4.8944e-07     0.873982 
         -50      60.7872  6.29262e-07  4.88526e-07     0.873704 
         -50      61.2667  6.23206e-07  4.86754e-07     0.873425 
         -50      61.7484  6.18267e-07  4.84543e-07     0.873146 
         -50      62.2317  6.14822e-07  4.82378e-07     0.872868 
         -50      62.7168  6.12848e-07  4.80831e-07     0.872589 
         -50      63.2039  6.11716e-07  4.80585e-07     0.872311 
         -50      63.6931  6.07233e-07  4.77788e-07     0.872034 
         -50      64.1839  5.99919e-07  4.72365e-07     0.871756 
         -50      64.6766  5.93065e-07  4.68258e-07     0.871479 
         -50      65.1712  5.86969e-07  4.65305e-07     0.871202 
         -50      65.6679   5.8175e-07  4.63231e-07     0.870926 
         -50      66.1663   5.7739e-07  4.61704e-07      0.87065 
         -50      66.6665  5.73765e-07   4.6038e-07     0.870374 
         -50      67.1687  5.70685e-07  4.58947e-07     0.870099 
         -50      67.6729  5.67927e-07   4.5716e-07     0.869825 
         -50      68.1788  5.65263e-07  4.54865e-07     0.869551 
         -50      68.6866  5.62483e-07   4.5201e-07     0.869277 
         -50      69.1963  5.59416e-07   4.4865e-07     0.869004 
         -50      69.7081  5.55946e-07  4.44937e-07     0.868732 
         -50      70.2215  5.52023e-07  4.41102e-07      0.86846 
         -50      70.7368  5.47668e-07  4.37415e-07     0.868189 
         -50      71.2543  5.42967e-07  4.34133e-07     0.867919 
         -50      71.7734  5.38074e-07  4.31443e-07      0.86765 
         -50      72.2943  5.33183e-07  4.29372e-07     0.867381 
         -50      72.8172  5.28514e-07  4.27684e-07     0.867113 
         -50      73.3422  5.24485e-07  4.25729e-07     0.866845 
         -50      73.8688  5.22752e-07  4.23118e-07     0.866579 
         -50      74.3973   5.1748e-07  4.21678e-07     0.866314 
         -50      74.9277  5.11254e-07  4.20851e-07     0.866049 
         -50      75.4602  5.06807e-07  4.19539e-07     0.865785 
         -50      75.9944  5.06468e-07  4.15276e-07     0.865522 
         -50      76.5305  5.06237e-07  4.10811e-07      0.86526 
         -50      77.0684  5.05043e-07  4.06757e-07        0.865 
         -50      77.6084  5.02699e-07  4.02731e-07      0.86474 
         -50      78.1502  4.99183e-07   3.9852e-07     0.864481 
         -50      78.6937  4.94594e-07  3.94046e-07     0.864223 
         -50      79.2394  4.89123e-07  3.89333e-07     0.863966 
         -50      79.7868  4.83845e-07  3.85364e-07     0.863711 
         -50      80.3361  4.81213e-07     3.84e-07     0.863456 
         -50      80.8872  4.78373e-07  3.81799e-07     0.863203 
         -50      81.4404  4.75455e-07  3.79024e-07     0.862951 
         -50      81.9953  4.72544e-07  3.75911e-07       0.8627 
         -50      82.5521  4.69687e-07  3.72656e-07     0.862451 
         -50      83.1108  4.66908e-07  3.69412e-07     0.862202 
         -50      83.6715  4.64212e-07   3.6628e-07     0.861955 
         -50       84.234  4.61599e-07  3.63312e-07     0.861709 
         -50      84.7983  4.59064e-07  3.60507e-07     0.861465 
         -50      85.3645  4.56599e-07  3.57816e-07     0.861222 
         -50      85.9328  4.54196e-07  3.55153e-07      0.86098 
         -50      86.5028  4.51848e-07  3.52406e-07      0.86074 
         -50      87.0747  4.49536e-07  3.49451e-07     0.860501 
         -50      87.6486  4.47227e-07  3.46171e-07     0.860264 
         -50      88.2243  4.44867e-07  3.42489e-07     0.860028 
         -50      88.8018  4.42357e-07  3.38387e-07     0.859793 
         -50      89.3812  4.39546e-07  3.33947e-07      0.85956 
         -50      89.9627  4.36201e-07  3.29388e-07     0.859329 
         -50      90.5458  4.31993e-07  3.25119e-07     0.859099 
         -50      91.1309  4.27565e-07  3.22153e-07     0.858871 
         -50      91.7178  4.26247e-07  3.21021e-07     0.858644 
         -50      92.3069  4.23927e-07  3.19281e-07     0.858419 
         -50      92.8976  4.21088e-07  3.16893e-07     0.858196 
         -50      93.4901  4.18073e-07  3.13898e-07     0.857974 
         -50      94.0846  4.15114e-07  3.10408e-07     0.857754 
         -50      94.6812  4.12354e-07  3.06576e-07     0.857536 
         -50      95.2794  4.09863e-07  3.02584e-07     0.857319 
         -50      95.8796   4.0766e-07  2.98606e-07     0.857104 
         -50      96.4818  4.05725e-07  2.94787e-07     0.856891 
         -50      97.0857  4.04025e-07  2.91221e-07      0.85668 
         -50      97.6915  4.02518e-07  2.87906e-07     0.856471 
         -50      98.2991  4.01077e-07  2.85013e-07     0.856263 
         -50      98.9089  3.99286e-07  2.82573e-07     0.856058 
         -50      99.5203  3.97313e-07   2.7975e-07     0.855854 
         -50      100.134  3.95232e-07  2.76596e-07     0.855652 
         -50      100.749  3.93101e-07  2.73166e-07     0.855452 
         -50      101.366  3.90956e-07  2.69522e-07     0.855254 
         -50      101.985  3.88828e-07  2.65729e-07     0.855059 
         -50      102.606  3.86729e-07  2.61852e-07     0.854865 
         -50      103.229  3.84664e-07  2.57956e-07     0.854673 
         -50      103.854  3.82633e-07    2.541e-07     0.854483 
         -50       104.48  3.80632e-07  2.50339e-07     0.854295 
         -50      105.108  3.78655e-07  2.46712e-07     0.854109 
         -50      105.739  3.76696e-07  2.43245e-07     0.853926 
         -50      106.371  3.74755e-07  2.39936e-07     0.853744 
         -50      107.005  3.72839e-07  2.36762e-07     0.853565 
         -50      107.641  3.70961e-07  2.33659e-07     0.853387 
         -50      108.279  3.69146e-07  2.30516e-07     0.853212 
         -50      108.919  3.67438e-07  2.27176e-07     0.853039 
         -50       109.56  3.65891e-07  2.23413e-07     0.852869 
         -50      110.204  3.64583e-07   2.1893e-07     0.852701 
         -50      110.849  3.63611e-07  2.13341e-07     0.852535 
         -50      111.497  3.63097e-07  2.06167e-07     0.852371 
         -50      112.146  3.63254e-07  2.02083e-07      0.85221 
         -50      112.797   3.6194e-07  2.01963e-07     0.852051 
         -50       113.45   3.5941e-07  2.00658e-07     0.851894 
         -50      114.105  3.56595e-07   1.9839e-07     0.851739 
         -50      114.761  3.54051e-07  1.95377e-07     0.851587 
         -50       115.42  3.52039e-07  1.91825e-07     0.851437 
         -50      116.081  3.50606e-07  1.87922e-07      0.85129 
         -50      116.743  3.49656e-07  1.83837e-07     0.851146 
         -50      117.407  3.49002e-07  1.79703e-07     0.851004 
         -50      118.073  3.48426e-07  1.75621e-07     0.850864 
         -50      118.741  3.47714e-07  1.71655e-07     0.850727 
         -50      119.411  3.46694e-07  1.67821e-07     0.850593 
         -50      120.083  3.45253e-07  1.64088e-07     0.850462 
         -50      120.757  3.43344e-07  1.60376e-07     0.850332 
         -50      121.432  3.40987e-07  1.56555e-07     0.850206 
         -50       122.11  3.38249e-07   1.5244e-07     0.850081 
         -50      122.789  3.35214e-07  1.47793e-07     0.849959 
         -50       123.47  3.39225e-07   1.4453e-07      0.84984 
         -50      124.153  3.40844e-07   1.4122e-07     0.849725 
         -50      124.838  3.40633e-07  1.37811e-07     0.849612 
         -50      125.525  3.39107e-07  1.34281e-07     0.849501 
         -50      126.214  3.36702e-07  1.30626e-07     0.849394 
         -50      126.905  3.33791e-07   1.2686e-07     0.849289 
         -50      127.597  3.30681e-07  1.23011e-07     0.849188 
         -50      128.292   3.2762e-07   1.1911e-07     0.849088 
         -50      128.988  3.24807e-07    1.152e-07     0.848992 
         -50      129.686  3.22386e-07   1.1132e-07     0.848899 
         -50      130.386   3.2046e-07  1.07499e-07     0.848808 
         -50      131.088  3.19087e-07  1.03755e-07      0.84872 
         -50      131.792  3.18291e-07  1.00087e-07     0.848634 
         -50      132.497  3.18057e-07  9.64623e-08     0.848552 
         -50      133.205  3.18341e-07  9.28104e-08     0.848472 
         -50      133.915  3.19065e-07   8.9012e-08     0.848394 
         -50      134.626  3.19023e-07  8.55129e-08      0.84832 
         -50      135.339  3.20881e-07  8.31356e-08     0.848251 
         -50      136.054  3.26978e-07  8.03279e-08     0.848184 
         -50      136.771  3.33949e-07  7.71213e-08      0.84812 
         -50       137.49  3.39149e-07  7.35645e-08     0.848058 
         -50      138.211  3.40821e-07  6.97127e-08        0.848 
         -50      138.934   3.3815e-07  6.56286e-08     0.847945 
         -50      139.658  3.31282e-07  6.13845e-08     0.847893 
         -50      140.385   3.2125e-07  5.70488e-08     0.847844 
         -50      141.113   3.0983e-07  5.26894e-08     0.847799 
         -50      141.843  2.99312e-07  4.83659e-08     0.847757 
         -50      142.575  2.92202e-07  4.41326e-08     0.847719 
         -50      143.309  2.90797e-07  4.00233e-08     0.847684 
         -50      144.045  2.96707e-07  3.60535e-08     0.847652 
         -50      144.783  3.10256e-07  3.22117e-08     0.847625 
         -50      145.523  3.29764e-07  2.84598e-08       0.8476 
         -50      146.264  3.50771e-07  2.47184e-08     0.847579 
         -50      147.007  3.65096e-07  2.08658e-08     0.847562 
         -50      147.753  3.59795e-07  1.67289e-08     0.847547 
         -50        148.5  3.16011e-07  1.20817e-08     0.847537 
         -50      149.249  2.07682e-07   6.6287e-09     0.847529 
         -50          150  1.87392e-21  5.08054e-23     0.847526 
         -25            0           -0           -0     0.868325 
         -25     0.000942  2.61193e-07  2.04798e-11     0.868325 
         -25     0.003768  8.08634e-07  7.13806e-11     0.868325 
         -25     0.008478  1.17849e-06  1.29838e-10     0.868325 
         -25     0.015075  1.16528e-06   1.7911e-10     0.868325 
         -25     0.023553  1.02087e-06  2.19527e-10     0.868325 
         -25     0.033916  1.07726e-06  2.61614e-10     0.868325 
         -25     0.046163  1.21713e-06  3.11174e-10     0.868325 
         -25       0.0603  1.14447e-06   3.7358e-10     0.868325 
         -25     0.076315  1.26479e-06  4.72522e-10     0.868325 
         -25     0.094215  1.23292e-06  6.17028e-10     0.868325 
         -25     0.113999  1.26661e-06  8.49019e-10     0.868325 
         -25     0.135675  1.28531e-06   1.1926e-09     0.868325 
         -25     0.159228  1.31321e-06  1.68092e-09     0.868325 
         -25     0.184664  1.33696e-06  2.34336e-09     0.868325 
         -25     0.211985  1.35217e-06  3.20169e-09     0.868325 
         -25     0.241201  1.37481e-06  4.27725e-09     0.868325 
         -25      0.27229  1.38717e-06  5.59737e-09     0.868325 
         -25     0.305263  1.40148e-06  7.13023e-09     0.868325 
         -25     0.340135  1.41399e-06  8.90138e-09     0.868324 
         -25     0.376877  1.42597e-06  1.08914e-08     0.868324 
         -25     0.415503  1.43767e-06  1.30453e-08     0.868324 
         -25     0.456013  1.44876e-06  1.52959e-08     0.868324 
         -25     0.498424  1.45886e-06  1.75876e-08     0.868324 
         -25     0.542703  1.46785e-06  1.98693e-08     0.868323 
         -25     0.588866  1.47527e-06  2.20317e-08     0.868323 
         -25     0.636912  1.47968e-06  2.39215e-08     0.868323 
         -25     0.686864  1.48086e-06   2.5795e-08     0.868322 
         -25     0.738679  1.47786e-06  2.76486e-08     0.868322 
         -25     0.792379  1.47044e-06  2.94439e-08     0.868322 
         -25     0.847962  1.45876e-06  3.11259e-08     0.868321 
         -25     0.905453  1.44337e-06  3.26348e-08     0.868321 
         -25     0.964806  1.42509e-06   3.3917e-08      0.86832 
         -25      1.02604  1.40486e-06  3.49429e-08     0.868319 
         -25      1.08919  1.38352e-06  3.57172e-08     0.868319 
         -25      1.15419  1.36175e-06  3.62858e-08     0.868318 
         -25      1.22108  1.33987e-06  3.67353e-08     0.868317 
         -25      1.28985  1.31784e-06  3.71722e-08     0.868316 
         -25      1.36054   1.2954e-06  3.76796e-08     0.868315 
         -25      1.43308  1.27252e-06  3.82364e-08     0.868314 
         -25      1.50751  1.24994e-06  3.85376e-08     0.868313 
         -25      1.58382   1.2189e-06  3.67451e-08     0.868311 
         -25      1.66204  1.19448e-06  3.73517e-08      0.86831 
         -25      1.74212  1.17422e-06  3.90109e-08     0.868308 
         -25      1.82409  1.15583e-06  4.06004e-08     0.868307 
         -25      1.90793  1.13742e-06  4.12521e-08     0.868305 
         -25       1.9937  1.11747e-06  4.03758e-08     0.868303 
         -25      2.08131  1.09493e-06  3.76755e-08     0.868301 
         -25      2.17081  1.06929e-06  3.31517e-08     0.868299 
         -25      2.26223  1.04053e-06  2.70916e-08     0.868297 
         -25       2.3555  1.00925e-06  2.00591e-08     0.868295 
         -25      2.45065  9.76555e-07  1.28443e-08     0.868292 
         -25      2.54769  9.44027e-07  6.42273e-09      0.86829 