Variables = x, y, u, v, p

Zone, I=3600, F=POINT
         -50            0            0            0     -2.39584 
         -50     0.000942 -1.33871e-06 -1.60006e-10     -2.39584 
         -50     0.003768 -4.14595e-06 -5.85368e-10     -2.39584 
         -50     0.008478 -6.03974e-06 -1.16594e-09     -2.39584 
         -50     0.015075 -5.94219e-06 -1.84565e-09     -2.39584 
         -50     0.023553 -5.10637e-06 -2.67304e-09     -2.39584 
         -50     0.033916 -5.22086e-06 -3.73145e-09     -2.39584 
         -50     0.046163 -5.73289e-06 -5.02111e-09     -2.39584 
         -50       0.0603 -5.20117e-06 -6.49253e-09     -2.39584 
         -50     0.076315 -5.67944e-06  -8.2006e-09     -2.39584 
         -50     0.094215 -5.35633e-06 -1.00463e-08     -2.39584 
         -50     0.113999 -5.37792e-06 -1.20499e-08     -2.39584 
         -50     0.135675 -5.32603e-06 -1.41861e-08     -2.39584 
         -50     0.159228 -5.33987e-06 -1.63942e-08     -2.39584 
         -50     0.184664 -5.34845e-06 -1.85938e-08     -2.39584 
         -50     0.211985 -5.32869e-06 -2.07466e-08     -2.39584 
         -50     0.241201  -5.3682e-06  -2.2739e-08     -2.39584 
         -50      0.27229 -5.36587e-06 -2.44099e-08     -2.39584 
         -50     0.305263 -5.38632e-06 -2.61372e-08     -2.39584 
         -50     0.340135  -5.4053e-06 -2.72921e-08     -2.39584 
         -50     0.376877 -5.42702e-06 -2.76579e-08     -2.39584 
         -50     0.415503 -5.45077e-06 -2.73776e-08     -2.39584 
         -50     0.456013 -5.47371e-06 -2.67732e-08     -2.39583 
         -50     0.498424 -5.49416e-06 -2.62931e-08     -2.39583 
         -50     0.542703 -5.51332e-06 -2.68776e-08     -2.39583 
         -50     0.588866 -5.53202e-06 -3.12021e-08     -2.39583 
         -50     0.636912 -5.54672e-06 -3.97381e-08     -2.39583 
         -50     0.686864 -5.56138e-06 -4.42463e-08     -2.39582 
         -50     0.738679 -5.57478e-06  -4.6456e-08     -2.39582 
         -50     0.792379 -5.58677e-06 -4.74229e-08     -2.39582 
         -50     0.847962  -5.5971e-06 -4.80463e-08     -2.39581 
         -50     0.905453 -5.60554e-06 -4.90182e-08     -2.39581 
         -50     0.964806 -5.61186e-06 -5.07832e-08     -2.39581 
         -50      1.02604 -5.61606e-06 -5.35216e-08      -2.3958 
         -50      1.08919 -5.61833e-06 -5.71595e-08      -2.3958 
         -50      1.15419 -5.61911e-06  -6.1407e-08     -2.39579 
         -50      1.22108 -5.61907e-06 -6.58563e-08     -2.39578 
         -50      1.28985 -5.61888e-06 -7.01178e-08     -2.39578 
         -50      1.36054  -5.6188e-06 -7.40276e-08     -2.39577 
         -50      1.43308 -5.61807e-06 -7.79215e-08     -2.39576 
         -50      1.50751 -5.61396e-06 -8.30878e-08     -2.39576 
         -50      1.58382 -5.61581e-06 -9.22401e-08     -2.39575 
         -50      1.66204 -5.61191e-06 -9.75831e-08     -2.39574 
         -50      1.74212 -5.60261e-06 -1.01025e-07     -2.39573 
         -50      1.82409  -5.5887e-06 -1.04086e-07     -2.39572 
         -50      1.90793 -5.57129e-06 -1.07885e-07      -2.3957 
         -50       1.9937 -5.55178e-06 -1.13155e-07     -2.39569 
         -50      2.08131 -5.53176e-06 -1.20271e-07     -2.39568 
         -50      2.17081 -5.51283e-06  -1.2931e-07     -2.39566 
         -50      2.26223 -5.49653e-06 -1.40119e-07     -2.39565 
         -50       2.3555 -5.48419e-06  -1.5238e-07     -2.39563 
         -50      2.45065 -5.47677e-06 -1.65728e-07     -2.39561 
         -50      2.54769 -5.47473e-06 -1.79835e-07      -2.3956 
         -50      2.64665 -5.47798e-06  -1.9451e-07     -2.39558 
         -50      2.74746 -5.48574e-06 -2.09753e-07     -2.39556 
         -50      2.85014 -5.49665e-06 -2.25843e-07     -2.39553 
         -50      2.95472 -5.50878e-06 -2.43325e-07     -2.39551 
         -50      3.06122 -5.51989e-06 -2.62972e-07     -2.39549 
         -50      3.16956 -5.52778e-06 -2.85614e-07     -2.39546 
         -50      3.27979 -5.53086e-06 -3.11947e-07     -2.39543 
         -50       3.3919 -5.52895e-06 -3.42108e-07     -2.39541 
         -50      3.50594 -5.52435e-06 -3.75142e-07     -2.39538 
         -50      3.62181  -5.5233e-06 -4.08165e-07     -2.39535 
         -50      3.73958 -5.53782e-06 -4.35406e-07     -2.39531 
         -50      3.85927 -5.52113e-06 -4.67782e-07     -2.39528 
         -50       3.9808 -5.51062e-06 -4.89264e-07     -2.39524 
         -50      4.10422 -5.50883e-06 -5.05427e-07     -2.39521 
         -50      4.22952 -5.50498e-06 -5.26294e-07     -2.39517 
         -50      4.35675 -5.49739e-06 -5.49647e-07     -2.39512 
         -50      4.48582 -5.48671e-06 -5.72574e-07     -2.39508 
         -50      4.61677 -5.47487e-06 -5.92498e-07     -2.39504 
         -50      4.74961 -5.46425e-06 -6.07894e-07     -2.39499 
         -50      4.88438 -5.45667e-06 -6.18705e-07     -2.39494 
         -50      5.02099 -5.45272e-06 -6.26273e-07     -2.39489 
         -50      5.15948 -5.45109e-06 -6.32664e-07     -2.39484 
         -50      5.29985 -5.44826e-06 -6.39158e-07     -2.39478 
         -50      5.44217 -5.43856e-06 -6.43746e-07     -2.39473 
         -50      5.58631 -5.42746e-06 -6.51084e-07     -2.39467 
         -50      5.73233 -5.42013e-06 -6.58115e-07      -2.3946 
         -50      5.88024 -5.41445e-06 -6.69676e-07     -2.39454 
         -50       6.0301 -5.40925e-06 -6.84423e-07     -2.39447 
         -50      6.18178 -5.40394e-06 -6.99007e-07     -2.39441 
         -50      6.33534 -5.39817e-06 -7.11676e-07     -2.39433 
         -50      6.49085 -5.39163e-06 -7.24188e-07     -2.39426 
         -50      6.64818 -5.38396e-06  -7.4155e-07     -2.39418 
         -50      6.80739 -5.37673e-06 -7.68612e-07      -2.3941 
         -50      6.96849 -5.37486e-06  -7.9141e-07     -2.39402 
         -50      7.13154 -5.37297e-06 -8.04779e-07     -2.39394 
         -50      7.29641 -5.36633e-06 -8.19182e-07     -2.39385 
         -50      7.46316 -5.37052e-06 -8.38035e-07     -2.39376 
         -50       7.6318 -5.37438e-06 -8.60647e-07     -2.39366 
         -50      7.80239 -5.37308e-06 -8.83906e-07     -2.39357 
         -50      7.97479 -5.36698e-06 -9.04595e-07     -2.39347 
         -50      8.14908 -5.35871e-06 -9.20889e-07     -2.39336 
         -50      8.32526  -5.3508e-06 -9.33155e-07     -2.39326 
         -50      8.50338 -5.34414e-06 -9.44059e-07     -2.39315 
         -50      8.68333 -5.33751e-06 -9.57689e-07     -2.39303 
         -50      8.86515 -5.32721e-06 -9.74738e-07     -2.39292 
         -50      9.04894 -5.31547e-06 -9.93135e-07     -2.39279 
         -50      9.23453 -5.31395e-06 -9.89054e-07     -2.39267 
         -50      9.42201 -5.30704e-06 -1.02976e-06     -2.39254 
         -50      9.61137 -5.30059e-06 -1.04824e-06     -2.39241 
         -50      9.80269  -5.2883e-06 -1.06219e-06     -2.39228 
         -50      9.99583 -5.27505e-06 -1.07715e-06     -2.39214 
         -50      10.1908 -5.26347e-06 -1.09386e-06       -2.392 
         -50      10.3877 -5.25447e-06 -1.11062e-06     -2.39185 
         -50      10.5866 -5.24765e-06 -1.12527e-06      -2.3917 
         -50      10.7873 -5.24187e-06 -1.13666e-06     -2.39155 
         -50      10.9898 -5.23572e-06  -1.1454e-06     -2.39139 
         -50      11.1943 -5.22808e-06 -1.15377e-06     -2.39122 
         -50      11.4007 -5.21866e-06 -1.16458e-06     -2.39106 
         -50      11.6089 -5.20851e-06 -1.17878e-06     -2.39089 
         -50       11.819 -5.20054e-06 -1.19165e-06     -2.39071 
         -50       12.031 -5.19051e-06 -1.20586e-06     -2.39053 
         -50      12.2449 -5.18049e-06 -1.22362e-06     -2.39035 
         -50      12.4606  -5.1753e-06 -1.24186e-06     -2.39016 
         -50      12.6782 -5.17167e-06 -1.26125e-06     -2.38997 
         -50      12.8978 -5.16318e-06 -1.27426e-06     -2.38977 
         -50      13.1192 -5.14642e-06   -1.295e-06     -2.38957 
         -50      13.3425 -5.13381e-06 -1.31262e-06     -2.38936 
         -50      13.5677 -5.12394e-06 -1.31951e-06     -2.38915 
         -50      13.7948 -5.11521e-06 -1.32329e-06     -2.38893 
         -50      14.0237 -5.10641e-06 -1.32879e-06     -2.38871 
         -50      14.2546 -5.09663e-06  -1.3384e-06     -2.38848 
         -50      14.4873 -5.08525e-06 -1.35242e-06     -2.38825 
         -50      14.7219 -5.07196e-06 -1.36954e-06     -2.38802 
         -50      14.9584 -5.05687e-06 -1.38743e-06     -2.38778 
         -50      15.1968  -5.0406e-06 -1.40349e-06     -2.38753 
         -50      15.4371 -5.02451e-06  -1.4157e-06     -2.38728 
         -50      15.6792 -5.01106e-06 -1.42362e-06     -2.38702 
         -50      15.9232 -5.00408e-06 -1.42967e-06     -2.38676 
         -50      16.1691 -5.00112e-06  -1.4515e-06     -2.38649 
         -50       16.417 -4.99031e-06 -1.46998e-06     -2.38622 
         -50      16.6666 -4.97418e-06 -1.48381e-06     -2.38594 
         -50      16.9182 -4.95426e-06 -1.49544e-06     -2.38566 
         -50      17.1716 -4.93106e-06 -1.50598e-06     -2.38537 
         -50       17.427 -4.90456e-06 -1.51486e-06     -2.38508 
         -50      17.6842     -4.9e-06 -1.52719e-06     -2.38478 
         -50      17.9433  -4.8974e-06 -1.53811e-06     -2.38448 
         -50      18.2042 -4.88511e-06 -1.54632e-06     -2.38417 
         -50      18.4672 -4.86606e-06 -1.55459e-06     -2.38385 
         -50      18.7319 -4.84455e-06 -1.56551e-06     -2.38353 
         -50      18.9985 -4.82513e-06 -1.58036e-06     -2.38321 
         -50       19.267 -4.81111e-06 -1.59761e-06     -2.38287 
         -50      19.5375 -4.80255e-06 -1.61105e-06     -2.38254 
         -50      19.8098 -4.79247e-06 -1.61131e-06     -2.38219 
         -50       20.084 -4.76669e-06 -1.63776e-06     -2.38184 
         -50      20.3601 -4.74492e-06 -1.65968e-06     -2.38149 
         -50       20.638 -4.72627e-06 -1.67778e-06     -2.38113 
         -50      20.9178 -4.70972e-06 -1.69281e-06     -2.38076 
         -50      21.1995 -4.69426e-06 -1.70545e-06     -2.38039 
         -50      21.4832 -4.67901e-06 -1.71641e-06     -2.38001 
         -50      21.7687 -4.66323e-06 -1.72631e-06     -2.37963 
         -50       22.056 -4.64644e-06 -1.73577e-06     -2.37924 
         -50      22.3452  -4.6284e-06 -1.74533e-06     -2.37885 
         -50      22.6365 -4.60915e-06 -1.75548e-06     -2.37845 
         -50      22.9295 -4.58903e-06 -1.76661e-06     -2.37804 
         -50      23.2243 -4.56855e-06 -1.77901e-06     -2.37763 
         -50      23.5211 -4.54833e-06 -1.79285e-06     -2.37721 
         -50      23.8199 -4.52901e-06 -1.80815e-06     -2.37679 
         -50      24.1204 -4.51103e-06 -1.82474e-06     -2.37636 
         -50      24.4228 -4.49443e-06 -1.84224e-06     -2.37593 
         -50      24.7272 -4.47852e-06 -1.86003e-06     -2.37549 
         -50      25.0334 -4.46161e-06 -1.87717e-06     -2.37504 
         -50      25.3415 -4.44052e-06 -1.89243e-06     -2.37459 
         -50      25.6514 -4.40994e-06 -1.90239e-06     -2.37413 
         -50      25.9634 -4.37291e-06 -1.89486e-06     -2.37367 
         -50      26.2771 -4.34968e-06 -1.89026e-06      -2.3732 
         -50      26.5927 -4.33186e-06 -1.89236e-06     -2.37273 
         -50      26.9102 -4.31725e-06 -1.90121e-06     -2.37225 
         -50      27.2297 -4.30428e-06  -1.9175e-06     -2.37176 
         -50       27.551 -4.28958e-06 -1.93349e-06     -2.37127 
         -50      27.8741 -4.27241e-06 -1.94725e-06     -2.37077 
         -50      28.1991 -4.25282e-06 -1.95887e-06     -2.37027 
         -50      28.5262 -4.23111e-06  -1.9688e-06     -2.36977 
         -50       28.855 -4.20781e-06 -1.97763e-06     -2.36925 
         -50      29.1856  -4.1835e-06 -1.98607e-06     -2.36873 
         -50      29.5183 -4.15878e-06 -1.99471e-06     -2.36821 
         -50      29.8528 -4.13421e-06 -2.00396e-06     -2.36768 
         -50      30.1891 -4.11024e-06 -2.01403e-06     -2.36715 
         -50      30.5273 -4.08714e-06 -2.02481e-06     -2.36661 
         -50      30.8676 -4.06502e-06 -2.03593e-06     -2.36607 
         -50      31.2096  -4.0438e-06 -2.04678e-06     -2.36552 
         -50      31.5534  -4.0232e-06 -2.05658e-06     -2.36496 
         -50      31.8992  -4.0028e-06 -2.06455e-06      -2.3644 
         -50      32.2469 -3.98204e-06 -2.07008e-06     -2.36384 
         -50      32.5965 -3.96041e-06 -2.07299e-06     -2.36327 
         -50      32.9479 -3.93744e-06 -2.07386e-06     -2.36269 
         -50      33.3012 -3.91289e-06 -2.07442e-06     -2.36211 
         -50      33.6565 -3.88696e-06 -2.07804e-06     -2.36153 
         -50      34.0135 -3.86048e-06 -2.09027e-06     -2.36094 
         -50      34.3725 -3.83569e-06 -2.08858e-06     -2.36035 
         -50      34.7334 -3.81155e-06 -2.07876e-06     -2.35975 
         -50      35.0962 -3.78735e-06 -2.07148e-06     -2.35915 
         -50      35.4608 -3.77075e-06  -2.0774e-06     -2.35854 
         -50      35.8272 -3.75522e-06 -2.08521e-06     -2.35793 
         -50      36.1957 -3.73608e-06 -2.08931e-06     -2.35731 
         -50       36.566 -3.71459e-06  -2.0914e-06     -2.35669 
         -50      36.9381 -3.69161e-06 -2.09264e-06     -2.35607 
         -50      37.3121 -3.66769e-06 -2.09372e-06     -2.35544 
         -50      37.6882 -3.64318e-06 -2.09501e-06      -2.3548 
         -50       38.066 -3.61832e-06 -2.09659e-06     -2.35417 
         -50      38.4456 -3.59323e-06 -2.09844e-06     -2.35353 
         -50      38.8272 -3.56806e-06 -2.10041e-06     -2.35288 
         -50      39.2108 -3.54294e-06 -2.10235e-06     -2.35223 
         -50      39.5961 -3.51807e-06 -2.10415e-06     -2.35158 
         -50      39.9833 -3.49364e-06 -2.10571e-06     -2.35092 
         -50      40.3724 -3.46985e-06 -2.10701e-06     -2.35027 
         -50      40.7635 -3.44684e-06 -2.10805e-06      -2.3496 
         -50      41.1564 -3.42462e-06 -2.10879e-06     -2.34894 
         -50      41.5511 -3.40293e-06 -2.10913e-06     -2.34827 
         -50      41.9479 -3.38112e-06 -2.10875e-06     -2.34759 
         -50      42.3464 -3.35843e-06   -2.107e-06     -2.34691 
         -50      42.7468 -3.33887e-06 -2.10501e-06     -2.34624 
         -50      43.1491 -3.31841e-06 -2.10413e-06     -2.34555 
         -50      43.5534 -3.29768e-06 -2.10436e-06     -2.34487 
         -50      43.9595 -3.27684e-06  -2.1054e-06     -2.34418 
         -50      44.3674 -3.25563e-06 -2.10678e-06     -2.34349 
         -50      44.7772 -3.23357e-06 -2.10791e-06     -2.34279 
         -50      45.1891 -3.21004e-06 -2.10815e-06     -2.34209 
         -50      45.6027 -3.18452e-06  -2.1069e-06     -2.34139 
         -50      46.0181 -3.15836e-06 -2.10329e-06     -2.34069 
         -50      46.4355 -3.13472e-06 -2.09932e-06     -2.33999 
         -50      46.8549 -3.11207e-06 -2.09581e-06     -2.33928 
         -50       47.276 -3.09035e-06  -2.0922e-06     -2.33857 
         -50       47.699 -3.06934e-06  -2.0882e-06     -2.33786 
         -50      48.1241 -3.04876e-06 -2.08372e-06     -2.33715 
         -50      48.5508 -3.02838e-06 -2.07886e-06     -2.33643 
         -50      48.9795 -3.00793e-06 -2.07379e-06     -2.33571 
         -50        49.41 -2.98723e-06 -2.06871e-06     -2.33499 
         -50      49.8426 -2.96614e-06 -2.06378e-06     -2.33427 
         -50      50.2769  -2.9446e-06 -2.05904e-06     -2.33355 
         -50      50.7131 -2.92256e-06 -2.05441e-06     -2.33282 
         -50      51.1512 -2.89993e-06 -2.04958e-06      -2.3321 
         -50      51.5914 -2.87658e-06 -2.04401e-06     -2.33137 
         -50      52.0332 -2.85733e-06 -2.04064e-06     -2.33064 
         -50      52.4769 -2.83819e-06 -2.03698e-06     -2.32991 
         -50      52.9225 -2.81813e-06 -2.03226e-06     -2.32918 
         -50      53.3702  -2.7976e-06 -2.02679e-06     -2.32845 
         -50      53.8196 -2.77693e-06 -2.02085e-06     -2.32771 
         -50      54.2709 -2.75633e-06 -2.01466e-06     -2.32698 
         -50      54.7242 -2.73592e-06 -2.00837e-06     -2.32624 
         -50      55.1792  -2.7158e-06 -2.00211e-06     -2.32551 
         -50      55.6362 -2.69599e-06 -1.99592e-06     -2.32477 
         -50       56.095 -2.67647e-06 -1.98978e-06     -2.32403 
         -50      56.5558 -2.65723e-06 -1.98365e-06      -2.3233 
         -50      57.0184 -2.63823e-06 -1.97742e-06     -2.32256 
         -50      57.4829 -2.61939e-06 -1.97097e-06     -2.32182 
         -50      57.9492 -2.60062e-06 -1.96416e-06     -2.32108 
         -50      58.4176 -2.58178e-06 -1.95688e-06     -2.32034 
         -50      58.8877 -2.56268e-06 -1.94906e-06      -2.3196 
         -50      59.3597 -2.54301e-06 -1.94071e-06     -2.31886 
         -50      59.8336 -2.52365e-06 -1.93341e-06     -2.31812 
         -50      60.3096 -2.50487e-06 -1.92502e-06     -2.31739 
         -50      60.7872 -2.48627e-06 -1.91592e-06     -2.31665 
         -50      61.2667  -2.4677e-06 -1.90682e-06     -2.31591 
         -50      61.7484 -2.44917e-06 -1.89801e-06     -2.31517 
         -50      62.2317 -2.43096e-06 -1.88931e-06     -2.31443 
         -50      62.7168 -2.41364e-06 -1.87996e-06      -2.3137 
         -50      63.2039 -2.39821e-06 -1.86854e-06     -2.31296 
         -50      63.6931 -2.38161e-06 -1.85868e-06     -2.31222 
         -50      64.1839 -2.36265e-06  -1.8519e-06     -2.31149 
         -50      64.6766 -2.34451e-06 -1.84401e-06     -2.31075 
         -50      65.1712 -2.32707e-06 -1.83516e-06     -2.31002 
         -50      65.6679 -2.31019e-06 -1.82559e-06     -2.30929 
         -50      66.1663  -2.2938e-06 -1.81555e-06     -2.30856 
         -50      66.6665 -2.27779e-06 -1.80527e-06     -2.30783 
         -50      67.1687 -2.26205e-06 -1.79493e-06      -2.3071 
         -50      67.6729 -2.24647e-06 -1.78463e-06     -2.30637 
         -50      68.1788 -2.23096e-06 -1.77441e-06     -2.30565 
         -50      68.6866 -2.21542e-06 -1.76421e-06     -2.30492 
         -50      69.1963 -2.19976e-06 -1.75395e-06      -2.3042 
         -50      69.7081 -2.18392e-06 -1.74349e-06     -2.30348 
         -50      70.2215 -2.16792e-06 -1.73276e-06     -2.30276 
         -50      70.7368 -2.15182e-06 -1.72178e-06     -2.30204 
         -50      71.2543 -2.13578e-06 -1.71076e-06     -2.30132 
         -50      71.7734 -2.12014e-06 -1.70023e-06     -2.30061 
         -50      72.2943  -2.1054e-06 -1.69112e-06      -2.2999 
         -50      72.8172 -2.09227e-06 -1.68497e-06     -2.29919 
         -50      73.3422 -2.08145e-06 -1.68304e-06     -2.29848 
         -50      73.8688 -2.06556e-06 -1.66269e-06     -2.29777 
         -50      74.3973 -2.05076e-06 -1.64609e-06     -2.29707 
         -50      74.9277 -2.03645e-06 -1.63246e-06     -2.29637 
         -50      75.4602 -2.02268e-06 -1.62039e-06     -2.29567 
         -50      75.9944 -2.00469e-06 -1.60827e-06     -2.29497 
         -50      76.5305  -1.9878e-06 -1.59566e-06     -2.29428 
         -50      77.0684 -1.97404e-06 -1.58291e-06     -2.29359 
         -50      77.6084 -1.96217e-06 -1.57039e-06      -2.2929 
         -50      78.1502 -1.95128e-06 -1.55835e-06     -2.29221 
         -50      78.6937 -1.94074e-06 -1.54687e-06     -2.29153 
         -50      79.2394 -1.93022e-06 -1.53597e-06     -2.29085 
         -50      79.7868 -1.91832e-06 -1.52479e-06     -2.29017 
         -50      80.3361 -1.90193e-06 -1.51154e-06      -2.2895 
         -50      80.8872 -1.88642e-06 -1.49913e-06     -2.28883 
         -50      81.4404 -1.87174e-06 -1.48729e-06     -2.28816 
         -50      81.9953 -1.85784e-06 -1.47575e-06     -2.28749 
         -50      82.5521 -1.84469e-06 -1.46428e-06     -2.28683 
         -50      83.1108 -1.83225e-06  -1.4527e-06     -2.28617 
         -50      83.6715 -1.82044e-06 -1.44087e-06     -2.28552 
         -50       84.234 -1.80918e-06 -1.42875e-06     -2.28487 
         -50      84.7983 -1.79836e-06 -1.41633e-06     -2.28422 
         -50      85.3645 -1.78783e-06 -1.40365e-06     -2.28358 
         -50      85.9328 -1.77743e-06 -1.39082e-06     -2.28294 
         -50      86.5028 -1.76702e-06 -1.37797e-06      -2.2823 
         -50      87.0747 -1.75644e-06 -1.36524e-06     -2.28167 
         -50      87.6486  -1.7456e-06 -1.35272e-06     -2.28104 
         -50      88.2243 -1.73447e-06 -1.34048e-06     -2.28041 
         -50      88.8018 -1.72314e-06 -1.32847e-06     -2.27979 
         -50      89.3812 -1.71184e-06 -1.31649e-06     -2.27917 
         -50      89.9627 -1.70102e-06 -1.30412e-06     -2.27856 
         -50      90.5458 -1.69141e-06 -1.29069e-06     -2.27795 
         -50      91.1309  -1.6834e-06 -1.27581e-06     -2.27734 
         -50      91.7178 -1.67376e-06 -1.26293e-06     -2.27674 
         -50      92.3069 -1.66405e-06 -1.25035e-06     -2.27615 
         -50      92.8976 -1.65432e-06 -1.23782e-06     -2.27556 
         -50      93.4901 -1.64461e-06 -1.22515e-06     -2.27497 
         -50      94.0846 -1.63494e-06 -1.21223e-06     -2.27439 
         -50      94.6812 -1.62531e-06 -1.19902e-06     -2.27381 
         -50      95.2794 -1.61575e-06 -1.18557e-06     -2.27323 
         -50      95.8796 -1.60628e-06 -1.17196e-06     -2.27266 
         -50      96.4818 -1.59696e-06 -1.15835e-06      -2.2721 
         -50      97.0857 -1.58793e-06 -1.14498e-06     -2.27154 
         -50      97.6915 -1.57935e-06 -1.13214e-06     -2.27098 
         -50      98.2991 -1.57169e-06 -1.11957e-06     -2.27044 
         -50      98.9089 -1.56446e-06 -1.10577e-06     -2.26989 
         -50      99.5203 -1.55671e-06  -1.0919e-06     -2.26935 
         -50      100.134 -1.54852e-06 -1.07798e-06     -2.26882 
         -50      100.749 -1.54002e-06 -1.06409e-06     -2.26829 
         -50      101.366 -1.53132e-06 -1.05023e-06     -2.26776 
         -50      101.985 -1.52255e-06 -1.03643e-06     -2.26724 
         -50      102.606 -1.51384e-06 -1.02269e-06     -2.26673 
         -50      103.229 -1.50531e-06   -1.009e-06     -2.26622 
         -50      103.854 -1.49707e-06 -9.95324e-07     -2.26572 
         -50       104.48  -1.4892e-06 -9.81648e-07     -2.26522 
         -50      105.108 -1.48178e-06  -9.6793e-07     -2.26473 
         -50      105.739 -1.47484e-06 -9.54138e-07     -2.26424 
         -50      106.371 -1.46838e-06 -9.40232e-07     -2.26376 
         -50      107.005 -1.46236e-06 -9.26199e-07     -2.26328 
         -50      107.641 -1.45667e-06 -9.12023e-07     -2.26281 
         -50      108.279 -1.45117e-06 -8.97703e-07     -2.26235 
         -50      108.919 -1.44561e-06 -8.83282e-07     -2.26189 
         -50       109.56 -1.43971e-06 -8.68815e-07     -2.26144 
         -50      110.204 -1.43306e-06 -8.54403e-07       -2.261 
         -50      110.849 -1.42518e-06 -8.40187e-07     -2.26056 
         -50      111.497 -1.41549e-06 -8.26381e-07     -2.26012 
         -50      112.146 -1.41168e-06 -8.13114e-07      -2.2597 
         -50      112.797 -1.41034e-06 -7.99546e-07     -2.25927 
         -50       113.45 -1.40447e-06 -7.85447e-07     -2.25886 
         -50      114.105 -1.39684e-06 -7.70879e-07     -2.25845 
         -50      114.761 -1.38914e-06 -7.55951e-07     -2.25805 
         -50       115.42 -1.38222e-06 -7.40817e-07     -2.25765 
         -50      116.081 -1.37639e-06 -7.25643e-07     -2.25726 
         -50      116.743 -1.37155e-06 -7.10605e-07     -2.25688 
         -50      117.407 -1.36742e-06 -6.95832e-07      -2.2565 
         -50      118.073  -1.3636e-06 -6.81407e-07     -2.25613 
         -50      118.741 -1.35971e-06 -6.67365e-07     -2.25577 
         -50      119.411 -1.35539e-06 -6.53646e-07     -2.25541 
         -50      120.083 -1.35031e-06 -6.40102e-07     -2.25506 
         -50      120.757 -1.34406e-06 -6.26475e-07     -2.25472 
         -50      121.432  -1.3361e-06 -6.12416e-07     -2.25439 
         -50       122.11 -1.32555e-06 -5.97443e-07     -2.25406 
         -50      122.789 -1.31094e-06 -5.80962e-07     -2.25374 
         -50       123.47 -1.32691e-06 -5.67031e-07     -2.25342 
         -50      124.153 -1.33307e-06 -5.52588e-07     -2.25311 
         -50      124.838 -1.33183e-06  -5.3776e-07     -2.25282 
         -50      125.525 -1.32538e-06 -5.22692e-07     -2.25252 
         -50      126.214 -1.31553e-06 -5.07516e-07     -2.25224 
         -50      126.905 -1.30377e-06 -4.92374e-07     -2.25196 
         -50      127.597 -1.29131e-06 -4.77374e-07     -2.25169 
         -50      128.292 -1.27909e-06   -4.626e-07     -2.25143 
         -50      128.988 -1.26783e-06  -4.4813e-07     -2.25117 
         -50      129.686 -1.25806e-06 -4.33987e-07     -2.25093 
         -50      130.386 -1.25017e-06 -4.20155e-07     -2.25068 
         -50      131.088 -1.24441e-06 -4.06561e-07     -2.25045 
         -50      131.792 -1.24095e-06 -3.93084e-07     -2.25023 
         -50      132.497  -1.2399e-06 -3.79512e-07     -2.25001 
         -50      133.205 -1.24136e-06  -3.6555e-07      -2.2498 
         -50      133.915 -1.24545e-06 -3.50799e-07     -2.24959 
         -50      134.626  -1.2488e-06 -3.34903e-07      -2.2494 
         -50      135.339 -1.26009e-06 -3.19395e-07     -2.24922 
         -50      136.054 -1.28548e-06  -3.0448e-07     -2.24904 
         -50      136.771 -1.31277e-06 -2.89772e-07     -2.24887 
         -50       137.49 -1.33238e-06 -2.75001e-07     -2.24871 
         -50      138.211 -1.33796e-06 -2.59975e-07     -2.24855 
         -50      138.934  -1.3267e-06  -2.4459e-07     -2.24841 
         -50      139.658 -1.29937e-06  -2.2884e-07     -2.24827 
         -50      140.385 -1.26006e-06  -2.1277e-07     -2.24815 
         -50      141.113 -1.21567e-06 -1.96486e-07     -2.24803 
         -50      141.843 -1.17501e-06 -1.80122e-07     -2.24792 
         -50      142.575 -1.14772e-06 -1.63855e-07     -2.24782 
         -50      143.309 -1.14256e-06 -1.47834e-07     -2.24772 
         -50      144.045 -1.16564e-06 -1.32187e-07     -2.24764 
         -50      144.783 -1.21807e-06 -1.16977e-07     -2.24757 
         -50      145.523 -1.29321e-06 -1.02196e-07      -2.2475 
         -50      146.264 -1.37367e-06 -8.76885e-08     -2.24745 
         -50      147.007 -1.42766e-06 -7.31434e-08      -2.2474 
         -50      147.753 -1.40493e-06 -5.80331e-08     -2.24737 
         -50        148.5  -1.2324e-06 -4.15928e-08     -2.24734 
         -50      149.249 -8.09053e-07 -2.27335e-08     -2.24732 
         -50          150 -7.29344e-21 -1.74357e-22     -2.24731 
         -25            0           -0           -0     -2.30224 
         -25     0.000942 -9.80733e-07  -6.0314e-11     -2.30224 
         -25     0.003768 -3.03833e-06 -2.21258e-10     -2.30224 
         -25     0.008478 -4.42967e-06 -4.43806e-10     -2.30224 
         -25     0.015075 -4.36547e-06 -7.12789e-10     -2.30224 
         -25     0.023553 -3.76162e-06 -1.05744e-09     -2.30224 
         -25     0.033916 -3.85242e-06 -1.52585e-09     -2.30224 
         -25     0.046163 -4.23211e-06 -2.14108e-09     -2.30224 
         -25       0.0603 -3.84484e-06 -2.91481e-09     -2.30224 
         -25     0.076315 -4.19196e-06 -3.90352e-09     -2.30224 
         -25     0.094215 -3.94715e-06 -5.10482e-09     -2.30224 
         -25     0.113999 -3.94821e-06 -6.57065e-09     -2.30224 
         -25     0.135675 -3.88892e-06 -8.30999e-09     -2.30224 
         -25     0.159228 -3.87137e-06 -1.03333e-08     -2.30224 
         -25     0.184664 -3.84428e-06 -1.26384e-08     -2.30224 
         -25     0.211985 -3.79186e-06  -1.5208e-08     -2.30224 
         -25     0.241201 -3.77953e-06 -1.80157e-08     -2.30224 
         -25      0.27229 -3.73485e-06 -2.10387e-08     -2.30224 
         -25     0.305263 -3.70659e-06 -2.41858e-08     -2.30224 
         -25     0.340135 -3.67821e-06 -2.74053e-08     -2.30224 
         -25     0.376877 -3.65379e-06 -3.06372e-08     -2.30224 
         -25     0.415503 -3.63354e-06 -3.38172e-08     -2.30224 
         -25     0.456013 -3.61588e-06 -3.68859e-08     -2.30224 
         -25     0.498424 -3.59984e-06 -3.98099e-08     -2.30224 
         -25     0.542703 -3.58642e-06 -4.25951e-08     -2.30224 
         -25     0.588866  -3.5761e-06 -4.53056e-08     -2.30224 
         -25     0.636912  -3.5662e-06 -4.76754e-08     -2.30224 
         -25     0.686864 -3.55887e-06 -4.97154e-08     -2.30224 
         -25     0.738679 -3.55357e-06 -5.17299e-08     -2.30224 
         -25     0.792379 -3.55104e-06 -5.37617e-08     -2.30224 
         -25     0.847962  -3.5519e-06 -5.58121e-08     -2.30223 
         -25     0.905453 -3.55667e-06 -5.78512e-08     -2.30223 
         -25     0.964806 -3.56568e-06 -5.98292e-08     -2.30223 
         -25      1.02604 -3.57902e-06 -6.16988e-08     -2.30223 
         -25      1.08919  -3.5966e-06 -6.34324e-08     -2.30223 
         -25      1.15419 -3.61802e-06 -6.50372e-08     -2.30223 
         -25      1.22108 -3.64272e-06 -6.65688e-08     -2.30222 
         -25      1.28985 -3.66994e-06 -6.81235e-08     -2.30222 
         -25      1.36054 -3.69892e-06 -6.98111e-08     -2.30222 
         -25      1.43308 -3.72898e-06 -7.16857e-08     -2.30222 
         -25      1.50751 -3.75985e-06 -7.36201e-08     -2.30221 
         -25      1.58382 -3.79124e-06 -7.51292e-08     -2.30221 
         -25      1.66204 -3.82421e-06 -7.72374e-08      -2.3022 
         -25      1.74212 -3.85714e-06 -7.95404e-08      -2.3022 
         -25      1.82409 -3.88898e-06 -8.17891e-08      -2.3022 
         -25      1.90793 -3.91922e-06 -8.38861e-08     -2.30219 
         -25       1.9937  -3.9478e-06 -8.58789e-08     -2.30219 
         -25      2.08131 -3.97504e-06 -8.79409e-08     -2.30218 
         -25      2.17081 -4.00156e-06 -9.03537e-08     -2.30218 
         -25      2.26223 -4.02812e-06 -9.34752e-08     -2.30217 
         -25       2.3555 -4.05547e-06 -9.76988e-08     -2.30216 
         -25      2.45065 -4.08422e-06  -1.0342e-07     -2.30216 
         -25      2.54769 -4.11467e-06 -1.10986e-07     -2.30215 