Variables = x, y, u, v, p

Zone, I=3600, F=POINT
         -50            0            0            0     0.319251 
         -50     0.000942  3.27886e-07  3.01194e-11     0.319251 
         -50     0.003768  1.02896e-06  1.13983e-10     0.319251 
         -50     0.008478  1.53857e-06  2.41789e-10     0.319251 
         -50     0.015075  1.57876e-06  4.19099e-10     0.319251 
         -50     0.023553  1.40998e-06  6.71946e-10     0.319251 
         -50     0.033916  1.42416e-06  1.02869e-09     0.319251 
         -50     0.046163  1.53312e-06  1.49762e-09     0.319251 
         -50       0.0603  1.41884e-06   2.0865e-09     0.319251 
         -50     0.076315  1.50154e-06  2.85672e-09     0.319251 
         -50     0.094215  1.41874e-06  3.84743e-09     0.319251 
         -50     0.113999  1.39756e-06  5.09382e-09     0.319251 
         -50     0.135675  1.35723e-06  6.64924e-09     0.319251 
         -50     0.159228  1.32386e-06  8.53768e-09     0.319251 
         -50     0.184664  1.28477e-06  1.07449e-08     0.319251 
         -50     0.211985  1.23654e-06  1.31947e-08     0.319251 
         -50     0.241201  1.19677e-06  1.56908e-08     0.319251 
         -50      0.27229  1.14822e-06  1.79816e-08      0.31925 
         -50     0.305263  1.10405e-06  1.97931e-08      0.31925 
         -50     0.340135  1.06088e-06  2.08935e-08      0.31925 
         -50     0.376877  1.02029e-06  2.18698e-08      0.31925 
         -50     0.415503  9.82688e-07  2.36665e-08      0.31925 
         -50     0.456013  9.47999e-07  2.69078e-08      0.31925 
         -50     0.498424  9.16424e-07   3.1327e-08      0.31925 
         -50     0.542703  8.88821e-07  3.57981e-08     0.319249 
         -50     0.588866  8.65783e-07  3.98138e-08     0.319249 
         -50     0.636912  8.46814e-07  4.37526e-08     0.319249 
         -50     0.686864  8.32586e-07  4.59573e-08     0.319248 
         -50     0.738679  8.23272e-07  4.78461e-08     0.319248 
         -50     0.792379  8.19526e-07  4.98424e-08     0.319248 
         -50     0.847962  8.21883e-07  5.20944e-08     0.319247 
         -50     0.905453  8.30736e-07   5.4537e-08     0.319247 
         -50     0.964806  8.46288e-07  5.69789e-08     0.319246 
         -50      1.02604  8.68555e-07  5.92203e-08     0.319246 
         -50      1.08919  8.97365e-07  6.11658e-08     0.319245 
         -50      1.15419  9.32316e-07   6.2912e-08     0.319244 
         -50      1.22108  9.72868e-07  6.47771e-08     0.319243 
         -50      1.28985  1.01836e-06  6.72043e-08     0.319243 
         -50      1.36054  1.06809e-06  7.04784e-08     0.319242 
         -50      1.43308  1.12141e-06  7.41531e-08     0.319241 
         -50      1.50751  1.17814e-06  7.61367e-08     0.319239 
         -50      1.58382  1.24291e-06  7.88369e-08     0.319238 
         -50      1.66204  1.29615e-06  8.13661e-08     0.319237 
         -50      1.74212  1.34199e-06  8.36775e-08     0.319236 
         -50      1.82409  1.38404e-06  8.59182e-08     0.319234 
         -50      1.90793  1.42521e-06  8.83973e-08     0.319233 
         -50       1.9937  1.46766e-06  9.15496e-08     0.319231 
         -50      2.08131  1.51275e-06  9.58805e-08     0.319229 
         -50      2.17081  1.56104e-06  1.01914e-07     0.319227 
         -50      2.26223  1.61234e-06  1.10129e-07     0.319225 
         -50       2.3555  1.66569e-06  1.20871e-07     0.319223 
         -50      2.45065  1.71951e-06  1.34313e-07     0.319221 
         -50      2.54769  1.77172e-06  1.50374e-07     0.319218 
         -50      2.64665  1.81992e-06  1.68689e-07     0.319216 
         -50      2.74746   1.8615e-06   1.8855e-07     0.319213 
         -50      2.85014  1.89403e-06  2.08963e-07      0.31921 
         -50      2.95472  1.91543e-06  2.28679e-07     0.319207 
         -50      3.06122  1.92432e-06  2.46321e-07     0.319204 
         -50      3.16956  1.92032e-06  2.60562e-07     0.319201 
         -50      3.27979   1.9044e-06  2.70467e-07     0.319197 
         -50       3.3919  1.87921e-06  2.75888e-07     0.319194 
         -50      3.50594  1.84944e-06  2.78055e-07      0.31919 
         -50      3.62181  1.82209e-06  2.80338e-07     0.319186 
         -50      3.73958  1.80673e-06  2.89234e-07     0.319181 
         -50      3.85927  1.78913e-06  2.84897e-07     0.319177 
         -50       3.9808    1.775e-06  2.86595e-07     0.319172 
         -50      4.10422  1.76221e-06  2.93655e-07     0.319167 
         -50      4.22952  1.74752e-06  2.97314e-07     0.319162 
         -50      4.35675  1.73196e-06  2.97717e-07     0.319156 
         -50      4.48582   1.7168e-06  2.95659e-07     0.319151 
         -50      4.61677  1.70282e-06   2.9226e-07     0.319145 
         -50      4.74961  1.69002e-06  2.88629e-07     0.319139 
         -50      4.88438  1.67751e-06  2.85571e-07     0.319132 
         -50      5.02099  1.66392e-06  2.83335e-07     0.319126 
         -50      5.15948  1.64837e-06   2.8144e-07     0.319119 
         -50      5.29985  1.63218e-06  2.78615e-07     0.319112 
         -50      5.44217  1.62146e-06  2.72878e-07     0.319104 
         -50      5.58631  1.60554e-06  2.75004e-07     0.319096 
         -50      5.73233  1.59493e-06  2.72137e-07     0.319088 
         -50      5.88024  1.58896e-06   2.6972e-07      0.31908 
         -50       6.0301  1.58585e-06  2.69077e-07     0.319071 
         -50      6.18178  1.58335e-06  2.69054e-07     0.319062 
         -50      6.33534  1.57904e-06  2.68047e-07     0.319052 
         -50      6.49085  1.57123e-06  2.65414e-07     0.319043 
         -50      6.64818  1.56066e-06  2.62056e-07     0.319032 
         -50      6.80739  1.55273e-06  2.66285e-07     0.319022 
         -50      6.96849  1.54519e-06   2.7532e-07     0.319011 
         -50      7.13154  1.53653e-06  2.45744e-07        0.319 
         -50      7.29641  1.53302e-06  2.68198e-07     0.318988 
         -50      7.46316  1.52699e-06    2.689e-07     0.318976 
         -50       7.6318  1.51938e-06  2.55084e-07     0.318964 
         -50      7.80239  1.51131e-06  2.40504e-07     0.318951 
         -50      7.97479  1.50362e-06  2.31791e-07     0.318938 
         -50      8.14908  1.49698e-06  2.30066e-07     0.318924 
         -50      8.32526  1.49193e-06  2.32736e-07      0.31891 
         -50      8.50338   1.4889e-06  2.35343e-07     0.318896 
         -50      8.68333  1.48803e-06   2.3346e-07     0.318881 
         -50      8.86515  1.48715e-06  2.21709e-07     0.318865 
         -50      9.04894  1.48592e-06  2.15381e-07      0.31885 
         -50      9.23453  1.48626e-06  2.25128e-07     0.318833 
         -50      9.42201  1.47657e-06  2.16279e-07     0.318816 
         -50      9.61137  1.47596e-06  2.17524e-07     0.318799 
         -50      9.80269   1.4738e-06     2.17e-07     0.318781 
         -50      9.99583  1.46916e-06  2.17521e-07     0.318763 
         -50      10.1908  1.46291e-06  2.20051e-07     0.318744 
         -50      10.3877  1.45662e-06  2.24234e-07     0.318725 
         -50      10.5866  1.45165e-06  2.28942e-07     0.318705 
         -50      10.7873  1.44853e-06  2.32816e-07     0.318685 
         -50      10.9898  1.44666e-06  2.34825e-07     0.318664 
         -50      11.1943   1.4445e-06  2.34777e-07     0.318643 
         -50      11.4007  1.44025e-06  2.33817e-07     0.318621 
         -50      11.6089  1.43317e-06  2.34864e-07     0.318598 
         -50       11.819  1.42561e-06  2.42987e-07     0.318575 
         -50       12.031   1.4286e-06  2.47972e-07     0.318551 
         -50      12.2449  1.43052e-06  2.50165e-07     0.318527 
         -50      12.4606  1.42882e-06  2.59684e-07     0.318502 
         -50      12.6782  1.42768e-06  2.69838e-07     0.318477 
         -50      12.8978  1.42925e-06  2.69919e-07     0.318451 
         -50      13.1192  1.42258e-06  2.71609e-07     0.318424 
         -50      13.3425   1.4135e-06  2.77885e-07     0.318397 
         -50      13.5677  1.40701e-06  2.80155e-07     0.318369 
         -50      13.7948  1.40171e-06  2.80342e-07      0.31834 
         -50      14.0237  1.39697e-06  2.80096e-07     0.318311 
         -50      14.2546  1.39264e-06  2.80813e-07     0.318281 
         -50      14.4873  1.38894e-06  2.83582e-07     0.318251 
         -50      14.7219  1.38619e-06  2.89064e-07     0.318219 
         -50      14.9584  1.38461e-06  2.97253e-07     0.318188 
         -50      15.1968  1.38416e-06  3.07162e-07     0.318155 
         -50      15.4371  1.38426e-06  3.16356e-07     0.318122 
         -50      15.6792  1.38368e-06  3.20346e-07     0.318088 
         -50      15.9232  1.38027e-06  3.11856e-07     0.318054 
         -50      16.1691  1.37444e-06  3.23464e-07     0.318018 
         -50       16.417  1.36735e-06  3.32145e-07     0.317982 
         -50      16.6666  1.35999e-06  3.35642e-07     0.317946 
         -50      16.9182  1.35344e-06   3.3804e-07     0.317908 
         -50      17.1716  1.34839e-06  3.40154e-07      0.31787 
         -50       17.427  1.34495e-06   3.3985e-07     0.317832 
         -50      17.6842  1.34225e-06  3.49338e-07     0.317792 
         -50      17.9433  1.33957e-06  3.57637e-07     0.317752 
         -50      18.2042  1.33721e-06  3.60684e-07     0.317711 
         -50      18.4672  1.33513e-06   3.6151e-07     0.317669 
         -50      18.7319  1.33302e-06  3.61927e-07     0.317627 
         -50      18.9985  1.33032e-06  3.62632e-07     0.317584 
         -50       19.267  1.32637e-06  3.63809e-07      0.31754 
         -50      19.5375  1.32048e-06  3.66303e-07     0.317495 
         -50      19.8098  1.31229e-06  3.72994e-07      0.31745 
         -50       20.084  1.30547e-06  3.77204e-07     0.317404 
         -50      20.3601  1.30073e-06  3.79391e-07     0.317357 
         -50       20.638  1.29732e-06  3.80562e-07      0.31731 
         -50      20.9178  1.29457e-06  3.81423e-07     0.317261 
         -50      21.1995  1.29189e-06  3.82428e-07     0.317212 
         -50      21.4832  1.28884e-06   3.8384e-07     0.317162 
         -50      21.7687  1.28511e-06  3.85776e-07     0.317112 
         -50       22.056  1.28054e-06  3.88261e-07      0.31706 
         -50      22.3452  1.27513e-06  3.91265e-07     0.317008 
         -50      22.6365  1.26902e-06  3.94743e-07     0.316955 
         -50      22.9295  1.26248e-06  3.98656e-07     0.316901 
         -50      23.2243  1.25588e-06  4.02994e-07     0.316847 
         -50      23.5211  1.24963e-06  4.07782e-07     0.316792 
         -50      23.8199  1.24412e-06  4.13072e-07     0.316736 
         -50      24.1204  1.23965e-06  4.18921e-07     0.316679 
         -50      24.4228  1.23634e-06  4.25359e-07     0.316622 
         -50      24.7272  1.23399e-06  4.32337e-07     0.316563 
         -50      25.0334  1.23192e-06  4.39636e-07     0.316504 
         -50      25.3415  1.22886e-06  4.46789e-07     0.316445 
         -50      25.6514    1.221e-06  4.51739e-07     0.316384 
         -50      25.9634  1.20368e-06  4.53423e-07     0.316323 
         -50      26.2771  1.19994e-06  4.48558e-07     0.316261 
         -50      26.5927  1.18997e-06  4.54885e-07     0.316198 
         -50      26.9102  1.18005e-06   4.6042e-07     0.316135 
         -50      27.2297  1.17517e-06  4.62165e-07      0.31607 
         -50       27.551  1.17229e-06  4.62566e-07     0.316005 
         -50      27.8741  1.17002e-06  4.62529e-07      0.31594 
         -50      28.1991  1.16796e-06  4.62461e-07     0.315873 
         -50      28.5262  1.16572e-06  4.62785e-07     0.315806 
         -50       28.855  1.16297e-06  4.63881e-07     0.315738 
         -50      29.1856  1.15945e-06  4.66032e-07     0.315669 
         -50      29.5183  1.15499e-06  4.69382e-07       0.3156 
         -50      29.8528  1.14951e-06  4.73906e-07      0.31553 
         -50      30.1891  1.14306e-06  4.79407e-07     0.315459 
         -50      30.5273   1.1358e-06  4.85513e-07     0.315388 
         -50      30.8676  1.12796e-06  4.91715e-07     0.315316 
         -50      31.2096  1.11986e-06  4.97398e-07     0.315243 
         -50      31.5534  1.11185e-06  5.01936e-07      0.31517 
         -50      31.8992  1.10425e-06  5.04781e-07     0.315095 
         -50      32.2469  1.09732e-06  5.05596e-07     0.315021 
         -50      32.5965  1.09113e-06  5.04417e-07     0.314945 
         -50      32.9479  1.08552e-06   5.0186e-07     0.314869 
         -50      33.3012  1.07993e-06  4.99352e-07     0.314792 
         -50      33.6565   1.0733e-06  4.99414e-07     0.314715 
         -50      34.0135   1.0639e-06   5.0599e-07     0.314637 
         -50      34.3725  1.05877e-06  5.02294e-07     0.314558 
         -50      34.7334  1.05467e-06  5.02368e-07     0.314479 
         -50      35.0962  1.04872e-06  5.12544e-07     0.314399 
         -50      35.4608  1.04143e-06  5.15506e-07     0.314318 
         -50      35.8272  1.03624e-06  5.11524e-07     0.314237 
         -50      36.1957  1.03202e-06  5.10192e-07     0.314155 
         -50       36.566  1.02751e-06  5.11218e-07     0.314073 
         -50      36.9381  1.02219e-06  5.13894e-07      0.31399 
         -50      37.3121  1.01603e-06  5.17349e-07     0.313907 
         -50      37.6882  1.00926e-06  5.20755e-07     0.313823 
         -50       38.066  1.00219e-06  5.23482e-07     0.313738 
         -50      38.4456  9.95096e-07  5.25209e-07     0.313653 
         -50      38.8272  9.88109e-07  5.25974e-07     0.313568 
         -50      39.2108   9.8116e-07  5.26155e-07     0.313482 
         -50      39.5961  9.74016e-07   5.2638e-07     0.313395 
         -50      39.9833  9.66333e-07  5.27364e-07     0.313308 
         -50      40.3724  9.57816e-07  5.29651e-07      0.31322 
         -50      40.7635  9.48426e-07  5.33263e-07     0.313132 
         -50      41.1564  9.38706e-07  5.37241e-07     0.313044 
         -50      41.5511  9.30144e-07  5.39086e-07     0.312955 
         -50      41.9479  9.25684e-07  5.34058e-07     0.312865 
         -50      42.3464  9.29323e-07  5.17743e-07     0.312776 
         -50      42.7468  9.26505e-07  5.26468e-07     0.312685 
         -50      43.1491  9.21166e-07  5.32257e-07     0.312595 
         -50      43.5534  9.13937e-07  5.35901e-07     0.312504 
         -50      43.9595  9.05379e-07  5.37639e-07     0.312412 
         -50      44.3674  8.96174e-07  5.37464e-07      0.31232 
         -50      44.7772  8.87363e-07  5.35411e-07     0.312228 
         -50      45.1891   8.8058e-07  5.31844e-07     0.312135 
         -50      45.6027  8.78309e-07  5.27747e-07     0.312043 
         -50      46.0181  8.75046e-07  5.29736e-07     0.311949 
         -50      46.4355  8.64676e-07  5.37121e-07     0.311856 
         -50      46.8549   8.5783e-07  5.41123e-07     0.311762 
         -50       47.276  8.53004e-07  5.42319e-07     0.311667 
         -50       47.699  8.48963e-07  5.41476e-07     0.311573 
         -50      48.1241  8.44818e-07  5.39418e-07     0.311478 
         -50      48.5508  8.40055e-07   5.3693e-07     0.311383 
         -50      48.9795  8.34502e-07  5.34654e-07     0.311288 
         -50        49.41   8.2828e-07  5.33018e-07     0.311192 
         -50      49.8426  8.21681e-07  5.32171e-07     0.311096 
         -50      50.2769  8.15012e-07  5.31944e-07        0.311 
         -50      50.7131  8.08355e-07  5.31829e-07     0.310904 
         -50      51.1512  8.01288e-07  5.30982e-07     0.310808 
         -50      51.5914  7.92521e-07  5.28248e-07     0.310711 
         -50      52.0332  7.90096e-07   5.2384e-07     0.310614 
         -50      52.4769  7.86928e-07  5.22999e-07     0.310517 
         -50      52.9225  7.81417e-07  5.24154e-07      0.31042 
         -50      53.3702  7.74716e-07  5.25848e-07     0.310322 
         -50      53.8196  7.67683e-07  5.27232e-07     0.310225 
         -50      54.2709   7.6089e-07  5.27927e-07     0.310127 
         -50      54.7242  7.54661e-07  5.27888e-07      0.31003 
         -50      55.1792  7.49122e-07  5.27286e-07     0.309932 
         -50      55.6362  7.44216e-07  5.26392e-07     0.309834 
         -50       56.095  7.39767e-07  5.25488e-07     0.309736 
         -50      56.5558  7.35514e-07   5.2478e-07     0.309638 
         -50      57.0184  7.31172e-07  5.24341e-07      0.30954 
         -50      57.4829  7.26481e-07  5.24059e-07     0.309441 
         -50      57.9492  7.21267e-07   5.2362e-07     0.309343 
         -50      58.4176  7.15506e-07  5.22501e-07     0.309245 
         -50      58.8877  7.09402e-07  5.19998e-07     0.309147 
         -50      59.3597  7.03449e-07  5.15272e-07     0.309048 
         -50      59.8336  7.00465e-07  5.14117e-07      0.30895 
         -50      60.3096  6.96973e-07  5.14465e-07     0.308852 
         -50      60.7872  6.92294e-07  5.14708e-07     0.308754 
         -50      61.2667  6.86638e-07  5.14607e-07     0.308656 
         -50      61.7484  6.80308e-07  5.13699e-07     0.308557 
         -50      62.2317  6.73876e-07  5.11325e-07     0.308459 
         -50      62.7168  6.68353e-07  5.06666e-07     0.308361 
         -50      63.2039  6.65404e-07  4.98762e-07     0.308263 
         -50      63.6931  6.58293e-07  4.98674e-07     0.308166 
         -50      64.1839   6.4895e-07    5.019e-07     0.308068 
         -50      64.6766  6.43742e-07  4.99478e-07      0.30797 
         -50      65.1712  6.40868e-07  4.94174e-07     0.307873 
         -50      65.6679  6.39002e-07  4.87987e-07     0.307775 
         -50      66.1663  6.37227e-07   4.8225e-07     0.307678 
         -50      66.6665  6.34966e-07  4.77719e-07     0.307581 
         -50      67.1687  6.31925e-07   4.7467e-07     0.307484 
         -50      67.6729  6.28024e-07  4.73007e-07     0.307388 
         -50      68.1788  6.23351e-07  4.72358e-07     0.307291 
         -50      68.6866  6.18098e-07  4.72181e-07     0.307195 
         -50      69.1963  6.12511e-07  4.71866e-07     0.307099 
         -50      69.7081  6.06851e-07  4.70847e-07     0.307003 
         -50      70.2215   6.0135e-07  4.68702e-07     0.306907 
         -50      70.7368  5.96172e-07  4.65267e-07     0.306812 
         -50      71.2543  5.91384e-07  4.60737e-07     0.306716 
         -50      71.7734  5.86939e-07  4.55786e-07     0.306621 
         -50      72.2943  5.82651e-07  4.51661e-07     0.306527 
         -50      72.8172  5.78192e-07  4.50299e-07     0.306432 
         -50      73.3422  5.73203e-07  4.53823e-07     0.306338 
         -50      73.8688  5.71165e-07  4.47089e-07     0.306244 
         -50      74.3973  5.69541e-07  4.40819e-07     0.306151 
         -50      74.9277  5.67335e-07  4.33912e-07     0.306058 
         -50      75.4602  5.64179e-07  4.24403e-07     0.305965 
         -50      75.9944  5.56117e-07    4.201e-07     0.305872 
         -50      76.5305  5.47688e-07  4.19578e-07      0.30578 
         -50      77.0684  5.41363e-07  4.18503e-07     0.305688 
         -50      77.6084  5.36957e-07   4.1713e-07     0.305596 
         -50      78.1502  5.34378e-07  4.15764e-07     0.305505 
         -50      78.6937  5.33633e-07  4.14739e-07     0.305415 
         -50      79.2394  5.34831e-07    4.144e-07     0.305324 
         -50      79.7868  5.35731e-07  4.12859e-07     0.305234 
         -50      80.3361  5.28804e-07   4.0505e-07     0.305145 
         -50      80.8872  5.22468e-07  3.99297e-07     0.305055 
         -50      81.4404  5.16751e-07  3.95109e-07     0.304967 
         -50      81.9953   5.1167e-07  3.92041e-07     0.304878 
         -50      82.5521  5.07215e-07  3.89691e-07      0.30479 
         -50      83.1108   5.0335e-07  3.87724e-07     0.304703 
         -50      83.6715   5.0001e-07  3.85865e-07     0.304616 
         -50       84.234  4.97109e-07  3.83915e-07     0.304529 
         -50      84.7983  4.94527e-07   3.8174e-07     0.304443 
         -50      85.3645  4.92134e-07  3.79273e-07     0.304358 
         -50      85.9328  4.89787e-07  3.76508e-07     0.304273 
         -50      86.5028  4.87353e-07  3.73492e-07     0.304188 
         -50      87.0747  4.84718e-07  3.70305e-07     0.304104 
         -50      87.6486  4.81811e-07  3.67043e-07      0.30402 
         -50      88.2243  4.78631e-07  3.63806e-07     0.303937 
         -50      88.8018  4.75273e-07  3.60655e-07     0.303855 
         -50      89.3812  4.71964e-07  3.57589e-07     0.303773 
         -50      89.9627  4.69097e-07  3.54507e-07     0.303691 
         -50      90.5458  4.67285e-07  3.51166e-07     0.303611 
         -50      91.1309   4.6639e-07  3.46645e-07      0.30353 
         -50      91.7178  4.62721e-07   3.4113e-07     0.303451 
         -50      92.3069  4.59648e-07  3.37355e-07     0.303371 
         -50      92.8976  4.57033e-07  3.34505e-07     0.303293 
         -50      93.4901  4.54742e-07  3.31936e-07     0.303215 
         -50      94.0846  4.52649e-07   3.2919e-07     0.303138 
         -50      94.6812  4.50641e-07  3.25991e-07     0.303061 
         -50      95.2794  4.48614e-07   3.2226e-07     0.302985 
         -50      95.8796  4.46477e-07  3.18103e-07     0.302909 
         -50      96.4818  4.44145e-07  3.13819e-07     0.302834 
         -50      97.0857  4.41542e-07  3.09905e-07      0.30276 
         -50      97.6915  4.38595e-07  3.07039e-07     0.302686 
         -50      98.2991  4.35715e-07  3.04333e-07     0.302614 
         -50      98.9089  4.33802e-07  2.98515e-07     0.302541 
         -50      99.5203  4.31713e-07  2.93339e-07      0.30247 
         -50      100.134   4.2942e-07  2.88759e-07     0.302399 
         -50      100.749  4.26915e-07  2.84709e-07     0.302329 
         -50      101.366  4.24208e-07  2.81101e-07     0.302259 
         -50      101.985  4.21334e-07   2.7784e-07      0.30219 
         -50      102.606  4.18337e-07  2.74823e-07     0.302122 
         -50      103.229   4.1528e-07  2.71948e-07     0.302055 
         -50      103.854  4.12235e-07  2.69118e-07     0.301988 
         -50       104.48  4.09283e-07   2.6625e-07     0.301922 
         -50      105.108  4.06506e-07   2.6327e-07     0.301857 
         -50      105.739  4.03977e-07  2.60122e-07     0.301793 
         -50      106.371  4.01761e-07  2.56764e-07     0.301729 
         -50      107.005  3.99903e-07  2.53176e-07     0.301666 
         -50      107.641  3.98414e-07  2.49349e-07     0.301604 
         -50      108.279  3.97267e-07  2.45288e-07     0.301543 
         -50      108.919  3.96382e-07  2.41013e-07     0.301482 
         -50       109.56  3.95611e-07  2.36546e-07     0.301422 
         -50      110.204  3.94725e-07  2.31909e-07     0.301363 
         -50      110.849  3.93398e-07  2.27111e-07     0.301305 
         -50      111.497  3.91191e-07  2.22152e-07     0.301248 
         -50      112.146  3.91368e-07  2.17651e-07     0.301191 
         -50      112.797  3.92036e-07  2.13992e-07     0.301136 
         -50       113.45  3.90122e-07  2.10474e-07     0.301081 
         -50      114.105  3.87103e-07  2.06989e-07     0.301027 
         -50      114.761  3.83949e-07   2.0347e-07     0.300974 
         -50       115.42  3.81224e-07  1.99886e-07     0.300922 
         -50      116.081  3.79184e-07  1.96228e-07      0.30087 
         -50      116.743  3.77855e-07  1.92503e-07      0.30082 
         -50      117.407  3.77108e-07  1.88726e-07      0.30077 
         -50      118.073  3.76716e-07  1.84911e-07     0.300721 
         -50      118.741  3.76407e-07  1.81073e-07     0.300674 
         -50      119.411  3.75895e-07  1.77216e-07     0.300626 
         -50      120.083  3.74902e-07  1.73341e-07      0.30058 
         -50      120.757  3.73163e-07  1.69435e-07     0.300535 
         -50      121.432   3.7042e-07  1.65488e-07     0.300491 
         -50       122.11  3.66391e-07  1.61482e-07     0.300448 
         -50      122.789  3.60725e-07  1.57405e-07     0.300406 
         -50       123.47  3.65714e-07  1.53951e-07     0.300364 
         -50      124.153   3.6785e-07  1.49763e-07     0.300324 
         -50      124.838  3.67816e-07  1.45142e-07     0.300285 
         -50      125.525  3.66229e-07  1.40343e-07     0.300246 
         -50      126.214  3.63602e-07  1.35572e-07     0.300208 
         -50      126.905  3.60358e-07  1.30992e-07     0.300172 
         -50      127.597  3.56837e-07  1.26707e-07     0.300136 
         -50      128.292  3.53311e-07  1.22771e-07     0.300102 
         -50      128.988  3.49999e-07   1.1919e-07     0.300068 
         -50      129.686  3.47071e-07  1.15916e-07     0.300036 
         -50      130.386  3.44661e-07  1.12845e-07     0.300004 
         -50      131.088  3.42881e-07  1.09826e-07     0.299974 
         -50      131.792  3.41833e-07  1.06655e-07     0.299945 
         -50      132.497  3.41614e-07  1.03077e-07     0.299917 
         -50      133.205  3.42329e-07  9.87891e-08      0.29989 
         -50      133.915  3.44105e-07  9.34354e-08     0.299864 
         -50      134.626  3.46006e-07  8.78397e-08      0.29984 
         -50      135.339  3.49618e-07  8.44178e-08     0.299816 
         -50      136.054   3.5676e-07  8.06299e-08     0.299793 
         -50      136.771  3.64268e-07  7.65895e-08     0.299772 
         -50       137.49  3.69633e-07  7.23931e-08     0.299752 
         -50      138.211  3.71185e-07   6.8112e-08     0.299733 
         -50      138.934  3.68177e-07  6.37994e-08     0.299715 
         -50      139.658  3.60821e-07  5.94972e-08     0.299698 
         -50      140.385  3.50219e-07  5.52276e-08     0.299682 
         -50      141.113  3.38233e-07  5.10024e-08     0.299668 
         -50      141.843  3.27244e-07  4.68212e-08     0.299654 
         -50      142.575  3.19858e-07  4.26803e-08     0.299642 
         -50      143.309   3.1845e-07  3.85646e-08      0.29963 
         -50      144.045  3.24672e-07  3.44563e-08      0.29962 
         -50      144.783  3.38819e-07  3.03342e-08     0.299611 
         -50      145.523   3.5907e-07  2.61815e-08     0.299604 
         -50      146.264  3.80659e-07  2.19788e-08     0.299597 
         -50      147.007   3.9488e-07  1.77124e-08     0.299592 
         -50      147.753   3.8797e-07  1.33733e-08     0.299587 
         -50        148.5  3.39882e-07  8.96612e-09     0.299585 
         -50      149.249  2.22903e-07  4.50079e-09     0.299583 
         -50          150  2.00792e-21  3.11118e-23     0.299582 
         -25            0           -0           -0     0.306815 
         -25     0.000942  2.41101e-07  1.08053e-11     0.306815 
         -25     0.003768  7.57615e-07  4.16336e-11     0.306815 
         -25     0.008478  1.13631e-06   9.1366e-11     0.306815 
         -25     0.015075  1.17364e-06  1.66365e-10     0.306815 
         -25     0.023553   1.0599e-06   2.8232e-10     0.306815 
         -25     0.033916  1.08149e-06  4.57393e-10     0.306815 
         -25     0.046163  1.17348e-06  7.03892e-10     0.306815 
         -25       0.0603  1.10268e-06  1.03609e-09     0.306815 
         -25     0.076315  1.17598e-06  1.49071e-09     0.306815 
         -25     0.094215  1.12754e-06   2.0984e-09     0.306815 
         -25     0.113999  1.12289e-06  2.88968e-09     0.306815 
         -25     0.135675   1.1023e-06  3.90515e-09     0.306815 
         -25     0.159228  1.08428e-06  5.18144e-09     0.306815 
         -25     0.184664  1.05908e-06   6.7518e-09     0.306815 
         -25     0.211985  1.02386e-06  8.64514e-09     0.306815 
         -25     0.241201  9.91398e-07  1.08847e-08     0.306815 
         -25      0.27229   9.4919e-07  1.34783e-08     0.306815 
         -25     0.305263  9.07302e-07  1.64624e-08     0.306815 
         -25     0.340135  8.63832e-07   1.9873e-08     0.306815 
         -25     0.376877  8.20823e-07  2.36796e-08     0.306815 
         -25     0.415503   7.7961e-07  2.78018e-08     0.306815 
         -25     0.456013    7.412e-07   3.2132e-08     0.306815 
         -25     0.498424  7.06618e-07  3.65818e-08     0.306815 
         -25     0.542703  6.77129e-07  4.11281e-08     0.306815 
         -25     0.588866  6.53667e-07  4.58751e-08     0.306814 
         -25     0.636912  6.36222e-07  5.15064e-08     0.306814 
         -25     0.686864  6.25708e-07  5.76753e-08     0.306814 
         -25     0.738679  6.22291e-07  6.40007e-08     0.306814 
         -25     0.792379   6.2583e-07  7.05087e-08     0.306814 
         -25     0.847962  6.35794e-07  7.71885e-08     0.306814 
         -25     0.905453  6.51323e-07  8.40036e-08     0.306814 
         -25     0.964806   6.7129e-07  9.08892e-08     0.306813 
         -25      1.02604  6.94462e-07  9.77786e-08     0.306813 
         -25      1.08919  7.19626e-07  1.04605e-07     0.306813 
         -25      1.15419  7.45697e-07  1.11301e-07     0.306813 
         -25      1.22108  7.71889e-07  1.17813e-07     0.306812 
         -25      1.28985  7.97732e-07  1.24074e-07     0.306812 
         -25      1.36054   8.2303e-07  1.29976e-07     0.306812 
         -25      1.43308  8.47586e-07  1.35291e-07     0.306811 
         -25      1.50751  8.70774e-07  1.39581e-07     0.306811 
         -25      1.58382  8.95314e-07  1.43977e-07      0.30681 
         -25      1.66204  9.21898e-07   1.4816e-07      0.30681 
         -25      1.74212  9.47284e-07  1.51433e-07     0.306809 
         -25      1.82409  9.69266e-07  1.53388e-07     0.306809 
         -25      1.90793  9.86621e-07  1.53891e-07     0.306808 
         -25       1.9937  9.99062e-07  1.53072e-07     0.306808 
         -25      2.08131  1.00712e-06  1.51301e-07     0.306807 
         -25      2.17081    1.012e-06  1.49139e-07     0.306806 
         -25      2.26223   1.0154e-06  1.47291e-07     0.306805 
         -25       2.3555  1.01925e-06  1.46541e-07     0.306805 
         -25      2.45065  1.02545e-06  1.47674e-07     0.306804 
         -25      2.54769  1.03565e-06  1.51406e-07     0.306803 