Variables = x, y, u, v, p

Zone, I=3600, F=POINT
         -50            0            0            0       1.2227 
         -50     0.000942  7.20257e-07  8.07414e-11       1.2227 
         -50     0.003768  2.22922e-06   2.8954e-10       1.2227 
         -50     0.008478  3.24288e-06  5.53769e-10       1.2227 
         -50     0.015075  3.18065e-06  8.17705e-10       1.2227 
         -50     0.023553  2.71775e-06  1.06845e-09       1.2227 
         -50     0.033916  2.76171e-06  1.30006e-09       1.2227 
         -50     0.046163  3.01221e-06  1.45594e-09       1.2227 
         -50       0.0603  2.70034e-06   1.4522e-09       1.2227 
         -50     0.076315  2.94794e-06  1.26638e-09       1.2227 
         -50     0.094215  2.76033e-06  7.99417e-10       1.2227 
         -50     0.113999  2.76593e-06  2.85091e-11       1.2227 
         -50     0.135675  2.73527e-06 -1.10444e-09       1.2227 
         -50     0.159228   2.7439e-06 -2.62578e-09       1.2227 
         -50     0.184664  2.75234e-06 -4.55762e-09       1.2227 
         -50     0.211985  2.74679e-06 -6.92315e-09       1.2227 
         -50     0.241201  2.77391e-06 -9.72825e-09       1.2227 
         -50      0.27229  2.77777e-06  -1.2983e-08       1.2227 
         -50     0.305263   2.7927e-06 -1.65755e-08       1.2227 
         -50     0.340135  2.80481e-06 -2.03571e-08       1.2227 
         -50     0.376877  2.81585e-06 -2.44947e-08       1.2227 
         -50     0.415503  2.82523e-06 -2.93401e-08       1.2227 
         -50     0.456013  2.83143e-06 -3.51993e-08       1.2227 
         -50     0.498424  2.83368e-06 -4.20864e-08       1.2227 
         -50     0.542703  2.83283e-06 -4.95588e-08       1.2227 
         -50     0.588866  2.82966e-06  -5.6876e-08       1.2227 
         -50     0.636912   2.8233e-06 -6.21607e-08       1.2227 
         -50     0.686864  2.81628e-06 -6.70987e-08       1.2227 
         -50     0.738679   2.8093e-06 -7.27753e-08      1.22269 
         -50     0.792379  2.80375e-06 -7.88232e-08      1.22269 
         -50     0.847962  2.80064e-06  -8.4907e-08      1.22269 
         -50     0.905453  2.80058e-06  -9.0735e-08      1.22269 
         -50     0.964806  2.80384e-06 -9.60539e-08      1.22269 
         -50      1.02604  2.81038e-06 -1.00666e-07      1.22268 
         -50      1.08919  2.81996e-06  -1.0443e-07      1.22268 
         -50      1.15419  2.83226e-06 -1.07261e-07      1.22268 
         -50      1.22108  2.84697e-06 -1.09169e-07      1.22268 
         -50      1.28985  2.86389e-06  -1.1029e-07      1.22267 
         -50      1.36054  2.88293e-06 -1.10956e-07      1.22267 
         -50      1.43308  2.90391e-06 -1.11805e-07      1.22266 
         -50      1.50751  2.92626e-06 -1.13861e-07      1.22266 
         -50      1.58382  2.94476e-06 -1.11083e-07      1.22266 
         -50      1.66204  2.96184e-06 -1.08337e-07      1.22265 
         -50      1.74212  2.97706e-06 -1.05185e-07      1.22265 
         -50      1.82409  2.99047e-06 -1.01141e-07      1.22264 
         -50      1.90793   3.0025e-06 -9.57039e-08      1.22263 
         -50       1.9937  3.01385e-06 -8.83947e-08      1.22263 
         -50      2.08131  3.02541e-06 -7.88077e-08      1.22262 
         -50      2.17081  3.03811e-06 -6.66378e-08      1.22261 
         -50      2.26223  3.05276e-06 -5.17298e-08      1.22261 
         -50       2.3555  3.06991e-06 -3.41406e-08       1.2226 
         -50      2.45065   3.0897e-06 -1.41401e-08      1.22259 
         -50      2.54769  3.11173e-06  7.74496e-09      1.22258 
         -50      2.64665  3.13496e-06   3.0739e-08      1.22257 
         -50      2.74746  3.15769e-06  5.37979e-08      1.22256 
         -50      2.85014  3.17762e-06  7.57169e-08      1.22255 
         -50      2.95472  3.19205e-06  9.51863e-08      1.22254 
         -50      3.06122  3.19819e-06  1.10952e-07      1.22252 
         -50      3.16956  3.19372e-06  1.22007e-07      1.22251 
         -50      3.27979  3.17762e-06  1.27922e-07       1.2225 
         -50       3.3919  3.15125e-06  1.29214e-07      1.22248 
         -50      3.50594  3.11989e-06  1.27865e-07      1.22247 
         -50      3.62181  3.09473e-06  1.27982e-07      1.22245 
         -50      3.73958  3.09533e-06  1.36604e-07      1.22244 
         -50      3.85927  3.09289e-06  1.40367e-07      1.22242 
         -50       3.9808  3.07898e-06  1.51354e-07       1.2224 
         -50      4.10422  3.06459e-06   1.5739e-07      1.22238 
         -50      4.22952   3.0513e-06  1.62587e-07      1.22236 
         -50      4.35675  3.04013e-06  1.67912e-07      1.22234 
         -50      4.48582  3.03126e-06  1.74347e-07      1.22232 
         -50      4.61677  3.02439e-06  1.82595e-07       1.2223 
         -50      4.74961   3.0191e-06  1.92852e-07      1.22227 
         -50      4.88438  3.01509e-06   2.0471e-07      1.22225 
         -50      5.02099  3.01213e-06  2.17203e-07      1.22222 
         -50      5.15948  3.00985e-06  2.29113e-07      1.22219 
         -50      5.29985  3.00714e-06  2.39511e-07      1.22217 
         -50      5.44217  3.00115e-06  2.48662e-07      1.22214 
         -50      5.58631  3.00054e-06  2.59194e-07      1.22211 
         -50      5.73233  2.99337e-06  2.71395e-07      1.22208 
         -50      5.88024   2.9833e-06  2.84589e-07      1.22204 
         -50       6.0301  2.97279e-06  2.97052e-07      1.22201 
         -50      6.18178  2.96297e-06  3.07813e-07      1.22197 
         -50      6.33534   2.9543e-06  3.17346e-07      1.22194 
         -50      6.49085   2.9473e-06  3.26638e-07       1.2219 
         -50      6.64818   2.9436e-06   3.3425e-07      1.22186 
         -50      6.80739  2.94145e-06  3.32882e-07      1.22182 
         -50      6.96849   2.9314e-06  3.30664e-07      1.22178 
         -50      7.13154   2.9278e-06  3.36127e-07      1.22173 
         -50      7.29641  2.92477e-06  3.38032e-07      1.22169 
         -50      7.46316  2.91342e-06  3.37534e-07      1.22164 
         -50       7.6318  2.90316e-06  3.41556e-07       1.2216 
         -50      7.80239  2.89717e-06  3.50723e-07      1.22155 
         -50      7.97479  2.89439e-06  3.62555e-07       1.2215 
         -50      8.14908  2.89212e-06  3.73408e-07      1.22144 
         -50      8.32526  2.88809e-06  3.80145e-07      1.22139 
         -50      8.50338  2.88156e-06  3.81456e-07      1.22133 
         -50      8.68333  2.87347e-06  3.78699e-07      1.22128 
         -50      8.86515  2.86666e-06  3.82399e-07      1.22122 
         -50      9.04894  2.86372e-06  3.90601e-07      1.22115 
         -50      9.23453  2.84862e-06   3.9655e-07      1.22109 
         -50      9.42201  2.85386e-06  4.02959e-07      1.22103 
         -50      9.61137  2.85331e-06  4.02192e-07      1.22096 
         -50      9.80269    2.847e-06   4.1554e-07      1.22089 
         -50      9.99583  2.84061e-06  4.29599e-07      1.22082 
         -50      10.1908  2.83519e-06  4.39068e-07      1.22075 
         -50      10.3877  2.82955e-06  4.43833e-07      1.22067 
         -50      10.5866  2.82226e-06   4.4638e-07       1.2206 
         -50      10.7873  2.81301e-06  4.49638e-07      1.22052 
         -50      10.9898  2.80325e-06  4.55399e-07      1.22044 
         -50      11.1943  2.79592e-06  4.63475e-07      1.22036 
         -50      11.4007  2.79411e-06  4.71766e-07      1.22027 
         -50      11.6089  2.79833e-06  4.77424e-07      1.22018 
         -50       11.819  2.80235e-06  4.79362e-07      1.22009 
         -50       12.031  2.79505e-06  4.83463e-07         1.22 
         -50      12.2449  2.78969e-06  4.95093e-07      1.21991 
         -50      12.4606  2.78401e-06  5.09589e-07      1.21981 
         -50      12.6782  2.77522e-06  5.22434e-07      1.21972 
         -50      12.8978  2.76386e-06  5.29446e-07      1.21962 
         -50      13.1192    2.762e-06  5.42554e-07      1.21951 
         -50      13.3425  2.75726e-06  5.60715e-07      1.21941 
         -50      13.5677  2.74847e-06  5.74369e-07       1.2193 
         -50      13.7948  2.74004e-06   5.8373e-07      1.21919 
         -50      14.0237  2.73386e-06  5.90206e-07      1.21908 
         -50      14.2546  2.72995e-06  5.95674e-07      1.21896 
         -50      14.4873  2.72716e-06  6.01836e-07      1.21884 
         -50      14.7219  2.72388e-06  6.09758e-07      1.21872 
         -50      14.9584  2.71862e-06  6.19587e-07       1.2186 
         -50      15.1968  2.71066e-06  6.30534e-07      1.21848 
         -50      15.4371  2.70054e-06  6.41102e-07      1.21835 
         -50      15.6792  2.69053e-06  6.49645e-07      1.21822 
         -50      15.9232  2.68493e-06   6.5533e-07      1.21808 
         -50      16.1691  2.67789e-06  6.64762e-07      1.21795 
         -50       16.417   2.6723e-06   6.7593e-07      1.21781 
         -50      16.6666  2.66838e-06  6.86033e-07      1.21767 
         -50      16.9182  2.66438e-06  6.94409e-07      1.21753 
         -50      17.1716  2.65853e-06  7.01064e-07      1.21738 
         -50       17.427  2.64895e-06  7.06272e-07      1.21723 
         -50      17.6842   2.6392e-06   7.1609e-07      1.21708 
         -50      17.9433  2.63165e-06  7.25106e-07      1.21692 
         -50      18.2042  2.62447e-06  7.32124e-07      1.21676 
         -50      18.4672  2.61677e-06  7.39536e-07       1.2166 
         -50      18.7319  2.60772e-06  7.49204e-07      1.21644 
         -50      18.9985   2.5969e-06  7.61595e-07      1.21627 
         -50       19.267  2.58453e-06  7.74892e-07      1.21611 
         -50      19.5375  2.57156e-06   7.8413e-07      1.21593 
         -50      19.8098  2.56028e-06   7.8311e-07      1.21576 
         -50       20.084  2.55686e-06  8.00416e-07      1.21558 
         -50      20.3601  2.55104e-06  8.14253e-07       1.2154 
         -50       20.638  2.54374e-06  8.26004e-07      1.21522 
         -50      20.9178  2.53564e-06  8.36592e-07      1.21503 
         -50      21.1995  2.52715e-06  8.46549e-07      1.21484 
         -50      21.4832  2.51852e-06  8.56124e-07      1.21465 
         -50      21.7687  2.50988e-06  8.65345e-07      1.21445 
         -50       22.056  2.50126e-06  8.74128e-07      1.21426 
         -50      22.3452  2.49261e-06  8.82327e-07      1.21406 
         -50      22.6365  2.48387e-06  8.89807e-07      1.21385 
         -50      22.9295  2.47499e-06  8.96475e-07      1.21365 
         -50      23.2243   2.4659e-06  9.02335e-07      1.21344 
         -50      23.5211  2.45657e-06  9.07487e-07      1.21322 
         -50      23.8199  2.44698e-06  9.12133e-07      1.21301 
         -50      24.1204  2.43708e-06  9.16541e-07      1.21279 
         -50      24.4228  2.42679e-06  9.21001e-07      1.21257 
         -50      24.7272  2.41594e-06  9.25743e-07      1.21234 
         -50      25.0334   2.4042e-06  9.30811e-07      1.21212 
         -50      25.3415  2.39099e-06  9.35932e-07      1.21189 
         -50      25.6514  2.37515e-06  9.40539e-07      1.21165 
         -50      25.9634  2.35505e-06  9.42273e-07      1.21142 
         -50      26.2771  2.34893e-06  9.48501e-07      1.21118 
         -50      26.5927  2.34564e-06  9.54766e-07      1.21094 
         -50      26.9102  2.33415e-06  9.64599e-07      1.21069 
         -50      27.2297     2.32e-06  9.78209e-07      1.21045 
         -50       27.551  2.30636e-06  9.90635e-07       1.2102 
         -50      27.8741  2.29417e-06  1.00079e-06      1.20994 
         -50      28.1991  2.28365e-06  1.00885e-06      1.20969 
         -50      28.5262  2.27441e-06  1.01524e-06      1.20943 
         -50       28.855  2.26578e-06  1.02051e-06      1.20917 
         -50      29.1856  2.25695e-06  1.02523e-06       1.2089 
         -50      29.5183  2.24717e-06  1.02987e-06      1.20864 
         -50      29.8528  2.23595e-06  1.03477e-06      1.20837 
         -50      30.1891  2.22307e-06  1.04002e-06       1.2081 
         -50      30.5273  2.20874e-06  1.04554e-06      1.20782 
         -50      30.8676  2.19351e-06    1.051e-06      1.20754 
         -50      31.2096  2.17827e-06  1.05593e-06      1.20726 
         -50      31.5534  2.16409e-06  1.05977e-06      1.20698 
         -50      31.8992    2.152e-06  1.06207e-06       1.2067 
         -50      32.2469  2.14272e-06  1.06258e-06      1.20641 
         -50      32.5965  2.13631e-06   1.0616e-06      1.20612 
         -50      32.9479  2.13158e-06  1.06018e-06      1.20583 
         -50      33.3012  2.12558e-06  1.06055e-06      1.20553 
         -50      33.6565  2.11285e-06  1.06654e-06      1.20523 
         -50      34.0135  2.08457e-06  1.08409e-06      1.20493 
         -50      34.3725  2.06875e-06  1.08652e-06      1.20463 
         -50      34.7334  2.06371e-06  1.08911e-06      1.20432 
         -50      35.0962  2.05738e-06   1.1046e-06      1.20402 
         -50      35.4608  2.04323e-06  1.10633e-06      1.20371 
         -50      35.8272  2.02664e-06  1.09881e-06       1.2034 
         -50      36.1957  2.01139e-06  1.09647e-06      1.20308 
         -50       36.566  1.99739e-06  1.09703e-06      1.20277 
         -50      36.9381  1.98441e-06  1.09897e-06      1.20245 
         -50      37.3121  1.97211e-06  1.10131e-06      1.20213 
         -50      37.6882  1.96021e-06  1.10353e-06       1.2018 
         -50       38.066  1.94845e-06  1.10539e-06      1.20148 
         -50      38.4456   1.9367e-06  1.10686e-06      1.20115 
         -50      38.8272  1.92491e-06  1.10799e-06      1.20082 
         -50      39.2108  1.91315e-06  1.10888e-06      1.20049 
         -50      39.5961  1.90155e-06  1.10958e-06      1.20016 
         -50      39.9833  1.89024e-06  1.11017e-06      1.19983 
         -50      40.3724  1.87922e-06  1.11067e-06      1.19949 
         -50      40.7635  1.86825e-06  1.11121e-06      1.19915 
         -50      41.1564   1.8567e-06  1.11203e-06      1.19881 
         -50      41.5511  1.84324e-06  1.11368e-06      1.19847 
         -50      41.9479  1.82564e-06  1.11718e-06      1.19813 
         -50      42.3464  1.80182e-06  1.12365e-06      1.19778 
         -50      42.7468  1.78985e-06  1.12538e-06      1.19743 
         -50      43.1491  1.78025e-06  1.12672e-06      1.19709 
         -50      43.5534  1.77131e-06  1.12728e-06      1.19674 
         -50      43.9595  1.76181e-06  1.12678e-06      1.19638 
         -50      44.3674  1.75111e-06  1.12521e-06      1.19603 
         -50      44.7772  1.73919e-06  1.12307e-06      1.19568 
         -50      45.1891   1.7267e-06  1.12152e-06      1.19532 
         -50      45.6027  1.71505e-06  1.12258e-06      1.19497 
         -50      46.0181  1.70704e-06    1.125e-06      1.19461 
         -50      46.4355   1.6989e-06  1.12262e-06      1.19425 
         -50      46.8549  1.68828e-06  1.12013e-06      1.19389 
         -50       47.276  1.67628e-06  1.11822e-06      1.19353 
         -50       47.699  1.66368e-06  1.11719e-06      1.19316 
         -50      48.1241    1.651e-06  1.11701e-06       1.1928 
         -50      48.5508  1.63848e-06  1.11741e-06      1.19243 
         -50      48.9795  1.62615e-06  1.11788e-06      1.19207 
         -50        49.41  1.61389e-06  1.11783e-06       1.1917 
         -50      49.8426   1.6015e-06  1.11669e-06      1.19133 
         -50      50.2769  1.58887e-06  1.11403e-06      1.19096 
         -50      50.7131   1.5761e-06  1.10972e-06      1.19059 
         -50      51.1512  1.56368e-06  1.10415e-06      1.19022 
         -50      51.5914  1.55271e-06  1.09839e-06      1.18985 
         -50      52.0332  1.54275e-06  1.09754e-06      1.18948 
         -50      52.4769  1.53278e-06  1.09664e-06      1.18911 
         -50      52.9225  1.52284e-06  1.09487e-06      1.18873 
         -50      53.3702  1.51275e-06  1.09266e-06      1.18836 
         -50      53.8196  1.50247e-06  1.09026e-06      1.18799 
         -50      54.2709  1.49198e-06  1.08776e-06      1.18761 
         -50      54.7242  1.48132e-06  1.08518e-06      1.18724 
         -50      55.1792  1.47059e-06  1.08249e-06      1.18686 
         -50      55.6362  1.45985e-06  1.07963e-06      1.18649 
         -50       56.095  1.44918e-06  1.07656e-06      1.18611 
         -50      56.5558  1.43862e-06  1.07325e-06      1.18573 
         -50      57.0184  1.42814e-06  1.06969e-06      1.18536 
         -50      57.4829  1.41765e-06   1.0659e-06      1.18498 
         -50      57.9492  1.40694e-06  1.06186e-06       1.1846 
         -50      58.4176  1.39566e-06  1.05752e-06      1.18423 
         -50      58.8877  1.38332e-06   1.0527e-06      1.18385 
         -50      59.3597  1.36923e-06  1.04708e-06      1.18347 
         -50      59.8336  1.35876e-06  1.04128e-06      1.18309 
         -50      60.3096  1.34991e-06  1.03607e-06      1.18272 
         -50      60.7872  1.34131e-06  1.03146e-06      1.18234 
         -50      61.2667  1.33296e-06  1.02753e-06      1.18196 
         -50      61.7484  1.32469e-06  1.02436e-06      1.18159 
         -50      62.2317  1.31603e-06  1.02207e-06      1.18121 
         -50      62.7168  1.30605e-06  1.02087e-06      1.18083 
         -50      63.2039  1.29329e-06   1.0211e-06      1.18046 
         -50      63.6931  1.28644e-06  1.01316e-06      1.18008 
         -50      64.1839  1.28259e-06    1.001e-06      1.17971 
         -50      64.6766   1.2741e-06  9.92947e-07      1.17933 
         -50      65.1712  1.26319e-06  9.87286e-07      1.17896 
         -50      65.6679  1.25144e-06  9.82745e-07      1.17858 
         -50      66.1663  1.23987e-06  9.78459e-07      1.17821 
         -50      66.6665  1.22906e-06  9.73898e-07      1.17784 
         -50      67.1687  1.21925e-06  9.68821e-07      1.17747 
         -50      67.6729  1.21045e-06  9.63214e-07       1.1771 
         -50      68.1788   1.2025e-06  9.57233e-07      1.17673 
         -50      68.6866  1.19515e-06  9.51133e-07      1.17636 
         -50      69.1963   1.1881e-06  9.45204e-07      1.17599 
         -50      69.7081   1.1811e-06  9.39698e-07      1.17562 
         -50      70.2215  1.17392e-06  9.34767e-07      1.17525 
         -50      70.7368  1.16639e-06  9.30376e-07      1.17488 
         -50      71.2543  1.15839e-06  9.26227e-07      1.17452 
         -50      71.7734  1.14986e-06  9.21685e-07      1.17415 
         -50      72.2943  1.14069e-06   9.1569e-07      1.17379 
         -50      72.8172  1.13072e-06  9.06668e-07      1.17343 
         -50      73.3422   1.1198e-06  8.92947e-07      1.17307 
         -50      73.8688  1.11222e-06  8.87717e-07      1.17271 
         -50      74.3973  1.10429e-06  8.82919e-07      1.17235 
         -50      74.9277  1.09702e-06  8.78845e-07      1.17199 
         -50      75.4602  1.09117e-06  8.75055e-07      1.17163 
         -50      75.9944  1.08602e-06  8.68233e-07      1.17128 
         -50      76.5305  1.07876e-06  8.60468e-07      1.17092 
         -50      77.0684  1.07055e-06  8.52995e-07      1.17057 
         -50      77.6084  1.06249e-06  8.45586e-07      1.17022 
         -50      78.1502  1.05535e-06  8.38106e-07      1.16987 
         -50      78.6937  1.04952e-06  8.30519e-07      1.16952 
         -50      79.2394  1.04512e-06  8.22914e-07      1.16917 
         -50      79.7868  1.04058e-06  8.16071e-07      1.16883 
         -50      80.3361  1.03152e-06  8.10842e-07      1.16848 
         -50      80.8872  1.02315e-06  8.04936e-07      1.16814 
         -50      81.4404  1.01544e-06  7.98614e-07       1.1678 
         -50      81.9953   1.0083e-06  7.92103e-07      1.16746 
         -50      82.5521  1.00163e-06   7.8557e-07      1.16712 
         -50      83.1108  9.95268e-07  7.79141e-07      1.16679 
         -50      83.6715  9.89088e-07  7.72889e-07      1.16645 
         -50       84.234  9.82966e-07  7.66845e-07      1.16612 
         -50      84.7983  9.76796e-07  7.60995e-07      1.16579 
         -50      85.3645  9.70512e-07  7.55287e-07      1.16546 
         -50      85.9328  9.64084e-07  7.49644e-07      1.16514 
         -50      86.5028  9.57532e-07  7.43977e-07      1.16481 
         -50      87.0747  9.50919e-07  7.38188e-07      1.16449 
         -50      87.6486  9.44348e-07  7.32194e-07      1.16417 
         -50      88.2243  9.37971e-07  7.25953e-07      1.16385 
         -50      88.8018   9.3196e-07  7.19473e-07      1.16353 
         -50      89.3812  9.26508e-07  7.12845e-07      1.16322 
         -50      89.9627  9.21805e-07  7.06274e-07       1.1629 
         -50      90.5458  9.18025e-07  7.00112e-07      1.16259 
         -50      91.1309  9.14293e-07  6.94034e-07      1.16228 
         -50      91.7178  9.07335e-07  6.85618e-07      1.16198 
         -50      92.3069  9.01116e-07  6.78077e-07      1.16167 
         -50      92.8976  8.95518e-07  6.71028e-07      1.16137 
         -50      93.4901  8.90438e-07  6.64122e-07      1.16107 
         -50      94.0846  8.85781e-07  6.57081e-07      1.16077 
         -50      94.6812  8.81438e-07  6.49712e-07      1.16048 
         -50      95.2794   8.7728e-07  6.41932e-07      1.16018 
         -50      95.8796  8.73135e-07  6.33775e-07      1.15989 
         -50      96.4818  8.68791e-07  6.25418e-07      1.15961 
         -50      97.0857  8.63992e-07  6.17213e-07      1.15932 
         -50      97.6915  8.58433e-07  6.09682e-07      1.15904 
         -50      98.2991  8.52894e-07  6.02795e-07      1.15876 
         -50      98.9089  8.49448e-07   5.9487e-07      1.15848 
         -50      99.5203  8.45657e-07   5.8718e-07       1.1582 
         -50      100.134  8.41593e-07  5.79644e-07      1.15793 
         -50      100.749  8.37325e-07  5.72205e-07      1.15766 
         -50      101.366  8.32914e-07  5.64817e-07      1.15739 
         -50      101.985  8.28427e-07   5.5746e-07      1.15713 
         -50      102.606  8.23923e-07  5.50114e-07      1.15687 
         -50      103.229  8.19462e-07   5.4277e-07      1.15661 
         -50      103.854  8.15098e-07  5.35423e-07      1.15635 
         -50       104.48  8.10884e-07   5.2808e-07       1.1561 
         -50      105.108  8.06859e-07  5.20738e-07      1.15584 
         -50      105.739  8.03047e-07    5.134e-07       1.1556 
         -50      106.371  7.99449e-07  5.06061e-07      1.15535 
         -50      107.005   7.9604e-07  4.98723e-07      1.15511 
         -50      107.641  7.92751e-07  4.91375e-07      1.15487 
         -50      108.279  7.89459e-07  4.83998e-07      1.15463 
         -50      108.919  7.85985e-07  4.76581e-07       1.1544 
         -50       109.56  7.82063e-07  4.69095e-07      1.15417 
         -50      110.204  7.77332e-07  4.61511e-07      1.15394 
         -50      110.849  7.71315e-07  4.53794e-07      1.15372 
         -50      111.497  7.63405e-07  4.45912e-07       1.1535 
         -50      112.146  7.62196e-07  4.38547e-07      1.15328 
         -50      112.797  7.65055e-07  4.32085e-07      1.15306 
         -50       113.45  7.63565e-07  4.25528e-07      1.15285 
         -50      114.105  7.59979e-07  4.18617e-07      1.15264 
         -50      114.761   7.5575e-07  4.11244e-07      1.15244 
         -50       115.42  7.51714e-07  4.03423e-07      1.15224 
         -50      116.081  7.48242e-07  3.95252e-07      1.15204 
         -50      116.743  7.45391e-07  3.86894e-07      1.15184 
         -50      117.407  7.43014e-07   3.7852e-07      1.15165 
         -50      118.073  7.40863e-07  3.70292e-07      1.15146 
         -50      118.741  7.38664e-07   3.6233e-07      1.15128 
         -50      119.411  7.36164e-07  3.54671e-07       1.1511 
         -50      120.083  7.33157e-07  3.47243e-07      1.15092 
         -50      120.757  7.29476e-07  3.39829e-07      1.15074 
         -50      121.432  7.24963e-07  3.32051e-07      1.15057 
         -50       122.11  7.19397e-07   3.2332e-07       1.1504 
         -50      122.789  7.12393e-07  3.12822e-07      1.15024 
         -50       123.47   7.2146e-07  3.06148e-07      1.15008 
         -50      124.153  7.25147e-07  2.99136e-07      1.14992 
         -50      124.838  7.24758e-07  2.91815e-07      1.14977 
         -50      125.525  7.21474e-07   2.8422e-07      1.14962 
         -50      126.214  7.16299e-07  2.76379e-07      1.14948 
         -50      126.905   7.1008e-07  2.68321e-07      1.14934 
         -50      127.597  7.03505e-07  2.60072e-07       1.1492 
         -50      128.292  6.97123e-07   2.5166e-07      1.14906 
         -50      128.988  6.91361e-07  2.43139e-07      1.14894 
         -50      129.686  6.86513e-07  2.34567e-07      1.14881 
         -50      130.386  6.82767e-07  2.26032e-07      1.14869 
         -50      131.088  6.80201e-07  2.17651e-07      1.14857 
         -50      131.792  6.78799e-07  2.09586e-07      1.14845 
         -50      132.497  6.78443e-07  2.02035e-07      1.14834 
         -50      133.205  6.78925e-07  1.95254e-07      1.14824 
         -50      133.915  6.79946e-07  1.89558e-07      1.14813 
         -50      134.626  6.80092e-07  1.83093e-07      1.14803 
         -50      135.339  6.86104e-07  1.72433e-07      1.14794 
         -50      136.054  6.99637e-07  1.62834e-07      1.14785 
         -50      136.771  7.14063e-07  1.53949e-07      1.14776 
         -50       137.49  7.24191e-07  1.45506e-07      1.14768 
         -50      138.211  7.26616e-07  1.37283e-07      1.14761 
         -50      138.934  7.19853e-07  1.29119e-07      1.14753 
         -50      139.658  7.04382e-07  1.20915e-07      1.14746 
         -50      140.385  6.82495e-07  1.12616e-07       1.1474 
         -50      141.113  6.58005e-07  1.04212e-07      1.14734 
         -50      141.843  6.35765e-07   9.5725e-08      1.14728 
         -50      142.575  6.21051e-07  8.72131e-08      1.14723 
         -50      143.309  6.18661e-07  7.87373e-08      1.14719 
         -50      144.045  6.31907e-07  7.03616e-08      1.14714 
         -50      144.783  6.61369e-07  6.21306e-08      1.14711 
         -50      145.523  7.03364e-07  5.40644e-08      1.14708 
         -50      146.264  7.48314e-07  4.61195e-08      1.14705 
         -50      147.007  7.78762e-07   3.8179e-08      1.14703 
         -50      147.753  7.67163e-07   3.0022e-08      1.14701 
         -50        148.5  6.73459e-07  2.13094e-08      1.14699 
         -50      149.249  4.42344e-07  1.15347e-08      1.14699 
         -50          150  3.98897e-21  8.76809e-23      1.14698 
         -25            0           -0           -0      1.17496 
         -25     0.000942  5.31363e-07   3.1036e-11      1.17496 
         -25     0.003768  1.64845e-06  1.09468e-10      1.17496 
         -25     0.008478   2.4114e-06  2.02237e-10      1.17496 
         -25     0.015075  2.39459e-06  2.80579e-10      1.17496 
         -25     0.023553  2.09068e-06  3.32114e-10      1.17496 
         -25     0.033916  2.16202e-06  3.49917e-10      1.17496 
         -25     0.046163  2.38708e-06  3.13478e-10      1.17496 
         -25       0.0603  2.20138e-06  1.99818e-10      1.17496 
         -25     0.076315  2.42342e-06  1.91372e-11      1.17496 
         -25     0.094215  2.32352e-06 -2.36665e-10      1.17496 
         -25     0.113999  2.35956e-06 -5.37592e-10      1.17496 
         -25     0.135675  2.36218e-06 -8.55793e-10      1.17496 
         -25     0.159228  2.38561e-06 -1.14982e-09      1.17496 
         -25     0.184664  2.40053e-06 -1.37233e-09      1.17496 
         -25     0.211985  2.39694e-06 -1.46932e-09      1.17496 
         -25     0.241201  2.40961e-06 -1.38594e-09      1.17496 
         -25      0.27229  2.39877e-06 -1.06758e-09      1.17496 
         -25     0.305263  2.39093e-06 -4.71782e-10      1.17496 
         -25     0.340135  2.37759e-06  4.20407e-10      1.17496 
         -25     0.376877  2.36173e-06  1.61293e-09      1.17496 
         -25     0.415503  2.34439e-06  3.09222e-09      1.17496 
         -25     0.456013  2.32578e-06   4.8294e-09      1.17496 
         -25     0.498424  2.30637e-06  6.79324e-09      1.17496 
         -25     0.542703  2.28755e-06  8.97201e-09      1.17496 
         -25     0.588866  2.27021e-06  1.14222e-08      1.17496 
         -25     0.636912  2.25353e-06  1.41174e-08      1.17496 
         -25     0.686864  2.23888e-06  1.66992e-08      1.17496 
         -25     0.738679  2.22581e-06  1.93944e-08      1.17495 
         -25     0.792379  2.21447e-06  2.23443e-08      1.17495 
         -25     0.847962  2.20483e-06  2.55714e-08      1.17495 
         -25     0.905453  2.19674e-06  2.90108e-08      1.17495 
         -25     0.964806  2.18993e-06  3.25463e-08      1.17495 
         -25      1.02604  2.18399e-06  3.60673e-08      1.17495 
         -25      1.08919   2.1785e-06  3.95131e-08      1.17495 
         -25      1.15419    2.173e-06   4.2901e-08      1.17495 
         -25      1.22108  2.16712e-06  4.63329e-08      1.17495 
         -25      1.28985  2.16056e-06  4.99289e-08      1.17495 
         -25      1.36054  2.15317e-06  5.36745e-08      1.17495 
         -25      1.43308  2.14491e-06  5.71232e-08      1.17494 
         -25      1.50751  2.13575e-06  5.90233e-08      1.17494 
         -25      1.58382   2.1252e-06  6.46731e-08      1.17494 
         -25      1.66204  2.12191e-06  6.81942e-08      1.17494 
         -25      1.74212  2.12185e-06  7.05806e-08      1.17494 
         -25      1.82409  2.12199e-06   7.2638e-08      1.17493 
         -25      1.90793   2.1203e-06  7.49647e-08      1.17493 
         -25       1.9937  2.11569e-06  7.79498e-08      1.17493 
         -25      2.08131  2.10797e-06  8.17717e-08      1.17493 
         -25      2.17081  2.09762e-06  8.64179e-08      1.17492 
         -25      2.26223  2.08571e-06  9.17049e-08      1.17492 
         -25       2.3555  2.07361e-06  9.73015e-08      1.17492 
         -25      2.45065  2.06278e-06  1.02781e-07      1.17491 
         -25      2.54769  2.05453e-06   1.0766e-07      1.17491 