Variables = x, y, u, v, p

Zone, I=3600, F=POINT
         -50            0            0            0     0.425286 
         -50     0.000942 -1.93129e-07  1.05738e-11     0.425286 
         -50     0.003768 -5.96712e-07  2.63214e-11     0.425286 
         -50     0.008478 -8.64245e-07  1.49482e-11     0.425286 
         -50     0.015075 -8.39858e-07  -4.0461e-11     0.425286 
         -50     0.023553 -7.11443e-07 -1.26128e-10     0.425286 
         -50     0.033916 -7.37485e-07  -2.1807e-10     0.425286 
         -50     0.046163 -8.48338e-07 -3.15382e-10     0.425286 
         -50       0.0603 -8.19246e-07 -4.35305e-10     0.425286 
         -50     0.076315 -9.24019e-07 -5.91953e-10     0.425286 
         -50     0.094215 -9.30905e-07 -8.67124e-10     0.425286 
         -50     0.113999 -9.74783e-07 -1.25574e-09     0.425286 
         -50     0.135675 -1.00663e-06 -1.85091e-09     0.425286 
         -50     0.159228 -1.03897e-06 -2.69043e-09     0.425286 
         -50     0.184664 -1.06553e-06 -3.81739e-09     0.425286 
         -50     0.211985 -1.08387e-06 -5.30638e-09     0.425286 
         -50     0.241201 -1.10188e-06 -7.14456e-09     0.425286 
         -50      0.27229 -1.11159e-06 -9.10087e-09     0.425286 
         -50     0.305263 -1.11894e-06 -1.14554e-08     0.425286 
         -50     0.340135   -1.123e-06 -1.34421e-08     0.425286 
         -50     0.376877 -1.12495e-06  -1.4815e-08     0.425285 
         -50     0.415503 -1.12529e-06 -1.59519e-08     0.425285 
         -50     0.456013 -1.12411e-06 -1.76344e-08     0.425285 
         -50     0.498424 -1.12141e-06 -2.07064e-08     0.425285 
         -50     0.542703 -1.11739e-06 -2.56866e-08     0.425284 
         -50     0.588866 -1.11239e-06 -3.25345e-08     0.425284 
         -50     0.636912 -1.10561e-06 -4.13952e-08     0.425284 
         -50     0.686864 -1.09814e-06 -4.94748e-08     0.425283 
         -50     0.738679 -1.09032e-06 -5.54694e-08     0.425283 
         -50     0.792379 -1.08163e-06  -5.9568e-08     0.425282 
         -50     0.847962 -1.07147e-06 -6.23471e-08     0.425281 
         -50     0.905453 -1.05922e-06 -6.46098e-08     0.425281 
         -50     0.964806 -1.04433e-06 -6.71689e-08      0.42528 
         -50      1.02604 -1.02639e-06 -7.06166e-08     0.425279 
         -50      1.08919 -1.00516e-06 -7.51103e-08     0.425278 
         -50      1.15419 -9.80743e-07 -8.02341e-08     0.425277 
         -50      1.22108 -9.53535e-07 -8.50476e-08     0.425276 
         -50      1.28985 -9.24261e-07 -8.83983e-08     0.425275 
         -50      1.36054 -8.93873e-07 -8.96738e-08     0.425274 
         -50      1.43308 -8.63404e-07 -9.01698e-08     0.425273 
         -50      1.50751 -8.33345e-07 -9.51191e-08     0.425271 
         -50      1.58382 -7.96902e-07 -9.47694e-08      0.42527 
         -50      1.66204 -7.69456e-07 -9.73534e-08     0.425268 
         -50      1.74212 -7.46902e-07 -1.00809e-07     0.425266 
         -50      1.82409  -7.2584e-07 -1.03501e-07     0.425264 
         -50      1.90793 -7.03684e-07 -1.04243e-07     0.425262 
         -50       1.9937 -6.78684e-07 -1.02304e-07      0.42526 
         -50      2.08131 -6.49971e-07 -9.74042e-08     0.425257 
         -50      2.17081 -6.17475e-07 -8.96749e-08     0.425255 
         -50      2.26223 -5.81882e-07 -7.96094e-08     0.425252 
         -50       2.3555 -5.44578e-07 -6.80078e-08     0.425249 
         -50      2.45065 -5.07427e-07 -5.58658e-08     0.425246 
         -50      2.54769 -4.72647e-07 -4.42872e-08     0.425243 
         -50      2.64665 -4.42573e-07 -3.43638e-08      0.42524 
         -50      2.74746 -4.19474e-07 -2.70737e-08     0.425236 
         -50      2.85014 -4.05215e-07 -2.31398e-08     0.425232 
         -50      2.95472 -4.01046e-07  -2.2944e-08     0.425228 
         -50      3.06122 -4.07333e-07 -2.64441e-08     0.425224 
         -50      3.16956 -4.23297e-07 -3.31235e-08      0.42522 
         -50      3.27979 -4.46837e-07 -4.20112e-08     0.425215 
         -50       3.3919 -4.74387e-07 -5.17634e-08      0.42521 
         -50      3.50594  -5.0089e-07  -6.0851e-08     0.425205 
         -50      3.62181  -5.1985e-07 -6.78546e-08     0.425199 
         -50      3.73958 -5.23662e-07 -7.19524e-08     0.425194 
         -50      3.85927 -5.37874e-07 -7.76902e-08     0.425188 
         -50       3.9808 -5.50361e-07 -8.36056e-08     0.425182 
         -50      4.10422 -5.53188e-07 -9.10826e-08     0.425175 
         -50      4.22952 -5.55287e-07 -9.53814e-08     0.425168 
         -50      4.35675 -5.58729e-07 -9.78498e-08     0.425161 
         -50      4.48582 -5.63415e-07 -1.00214e-07     0.425153 
         -50      4.61677 -5.68177e-07 -1.03805e-07     0.425146 
         -50      4.74961 -5.71739e-07 -1.09022e-07     0.425137 
         -50      4.88438 -5.73445e-07 -1.15182e-07     0.425129 
         -50      5.02099 -5.73643e-07 -1.20851e-07      0.42512 
         -50      5.15948 -5.73584e-07  -1.2486e-07     0.425111 
         -50      5.29985  -5.7468e-07 -1.28126e-07     0.425101 
         -50      5.44217 -5.76936e-07 -1.36519e-07     0.425091 
         -50      5.58631 -5.86562e-07 -1.31438e-07     0.425081 
         -50      5.73233 -5.95918e-07 -1.33487e-07      0.42507 
         -50      5.88024 -6.02061e-07 -1.33211e-07     0.425059 
         -50       6.0301 -6.04713e-07 -1.30358e-07     0.425047 
         -50      6.18178 -6.05314e-07 -1.28493e-07     0.425035 
         -50      6.33534  -6.0607e-07 -1.29985e-07     0.425023 
         -50      6.49085  -6.0858e-07 -1.33686e-07      0.42501 
         -50      6.64818 -6.12003e-07 -1.36128e-07     0.424996 
         -50      6.80739 -6.13056e-07 -1.34358e-07     0.424983 
         -50      6.96849 -6.12871e-07 -1.34073e-07     0.424968 
         -50      7.13154 -6.07429e-07 -1.55998e-07     0.424953 
         -50      7.29641 -6.06635e-07 -1.48726e-07     0.424938 
         -50      7.46316 -6.05295e-07 -1.54367e-07     0.424922 
         -50       7.6318 -6.04095e-07 -1.64772e-07     0.424906 
         -50      7.80239 -6.03752e-07 -1.70361e-07     0.424889 
         -50      7.97479 -6.04374e-07 -1.68218e-07     0.424871 
         -50      8.14908 -6.05717e-07 -1.60513e-07     0.424853 
         -50      8.32526 -6.07446e-07 -1.52479e-07     0.424835 
         -50      8.50338 -6.09385e-07 -1.49965e-07     0.424815 
         -50      8.68333 -6.11751e-07 -1.56472e-07     0.424796 
         -50      8.86515 -6.17578e-07 -1.67022e-07     0.424775 
         -50      9.04894 -6.20445e-07 -1.69599e-07     0.424754 
         -50      9.23453 -6.14208e-07  -1.5004e-07     0.424733 
         -50      9.42201 -6.13125e-07 -1.54885e-07      0.42471 
         -50      9.61137  -6.0981e-07 -1.75978e-07     0.424688 
         -50      9.80269 -6.07537e-07 -1.77346e-07     0.424664 
         -50      9.99583 -6.07295e-07 -1.74572e-07      0.42464 
         -50      10.1908  -6.0876e-07 -1.74446e-07     0.424615 
         -50      10.3877 -6.10997e-07  -1.7809e-07     0.424589 
         -50      10.5866 -6.13002e-07 -1.83722e-07     0.424563 
         -50      10.7873 -6.14075e-07 -1.88901e-07     0.424536 
         -50      10.9898 -6.13975e-07 -1.92125e-07     0.424508 
         -50      11.1943 -6.12779e-07 -1.93555e-07      0.42448 
         -50      11.4007 -6.10417e-07 -1.94692e-07     0.424451 
         -50      11.6089  -6.0581e-07 -1.96793e-07     0.424421 
         -50       11.819 -5.95527e-07 -1.97771e-07     0.424391 
         -50       12.031 -5.90564e-07  -2.0255e-07     0.424359 
         -50      12.2449 -5.96445e-07 -2.04188e-07     0.424327 
         -50      12.4606 -6.02199e-07 -1.98016e-07     0.424294 
         -50      12.6782 -6.03962e-07 -1.94738e-07      0.42426 
         -50      12.8978 -5.94571e-07 -2.08104e-07     0.424226 
         -50      13.1192 -5.90864e-07 -2.15028e-07      0.42419 
         -50      13.3425 -5.99651e-07 -2.08838e-07     0.424154 
         -50      13.5677 -6.05428e-07 -2.07582e-07     0.424117 
         -50      13.7948 -6.06449e-07 -2.11034e-07     0.424079 
         -50      14.0237 -6.03131e-07 -2.17712e-07     0.424041 
         -50      14.2546  -5.9724e-07 -2.25541e-07     0.424001 
         -50      14.4873 -5.91094e-07 -2.32451e-07     0.423961 
         -50      14.7219 -5.86811e-07 -2.36909e-07      0.42392 
         -50      14.9584 -5.85631e-07 -2.38347e-07     0.423878 
         -50      15.1968 -5.87296e-07 -2.37491e-07     0.423835 
         -50      15.4371 -5.89567e-07 -2.36523e-07     0.423791 
         -50      15.6792 -5.87849e-07 -2.39099e-07     0.423746 
         -50      15.9232 -5.74999e-07  -2.5014e-07       0.4237 
         -50      16.1691 -5.81454e-07 -2.49336e-07     0.423653 
         -50       16.417 -5.88492e-07 -2.43905e-07     0.423606 
         -50      16.6666 -5.88759e-07 -2.40741e-07     0.423557 
         -50      16.9182 -5.84624e-07 -2.40648e-07     0.423508 
         -50      17.1716 -5.79216e-07  -2.4423e-07     0.423458 
         -50       17.427 -5.75728e-07 -2.53222e-07     0.423406 
         -50      17.6842 -5.71415e-07 -2.47619e-07     0.423354 
         -50      17.9433 -5.64792e-07 -2.41187e-07     0.423301 
         -50      18.2042 -5.59785e-07  -2.4131e-07     0.423246 
         -50      18.4672 -5.58122e-07 -2.44988e-07     0.423191 
         -50      18.7319  -5.5999e-07 -2.50111e-07     0.423135 
         -50      18.9985 -5.63936e-07 -2.55444e-07     0.423078 
         -50       19.267  -5.6723e-07 -2.60254e-07      0.42302 
         -50      19.5375 -5.66738e-07 -2.63547e-07     0.422961 
         -50      19.8098 -5.60886e-07 -2.63821e-07     0.422901 
         -50       20.084 -5.56307e-07  -2.6824e-07      0.42284 
         -50      20.3601 -5.50532e-07 -2.68977e-07     0.422778 
         -50       20.638 -5.45241e-07  -2.6862e-07     0.422714 
         -50      20.9178 -5.41296e-07 -2.68709e-07      0.42265 
         -50      21.1995 -5.38933e-07 -2.69955e-07     0.422585 
         -50      21.4832 -5.37937e-07 -2.72462e-07     0.422519 
         -50      21.7687 -5.37814e-07 -2.75922e-07     0.422452 
         -50       22.056 -5.37942e-07 -2.79807e-07     0.422384 
         -50      22.3452 -5.37706e-07 -2.83526e-07     0.422315 
         -50      22.6365  -5.3661e-07 -2.86569e-07     0.422245 
         -50      22.9295 -5.34367e-07 -2.88601e-07     0.422174 
         -50      23.2243 -5.30954e-07 -2.89544e-07     0.422101 
         -50      23.5211 -5.26626e-07 -2.89591e-07     0.422028 
         -50      23.8199 -5.21901e-07 -2.89183e-07     0.421954 
         -50      24.1204 -5.17489e-07  -2.8893e-07     0.421879 
         -50      24.4228 -5.14166e-07 -2.89461e-07     0.421803 
         -50      24.7272 -5.12598e-07 -2.91211e-07     0.421725 
         -50      25.0334 -5.13087e-07 -2.94119e-07     0.421647 
         -50      25.3415 -5.15257e-07 -2.97245e-07     0.421568 
         -50      25.6514 -5.17728e-07  -3.0064e-07     0.421488 
         -50      25.9634 -5.23713e-07 -3.10992e-07     0.421407 
         -50      26.2771 -5.12011e-07 -3.05707e-07     0.421324 
         -50      26.5927  -5.1782e-07 -2.97446e-07     0.421241 
         -50      26.9102 -5.26818e-07 -2.91434e-07     0.421157 
         -50      27.2297 -5.27168e-07 -2.89425e-07     0.421072 
         -50       27.551 -5.22806e-07 -2.89637e-07     0.420986 
         -50      27.8741 -5.16146e-07 -2.91088e-07     0.420898 
         -50      28.1991 -5.07923e-07 -2.93262e-07      0.42081 
         -50      28.5262 -4.98961e-07 -2.95712e-07     0.420721 
         -50       28.855 -4.90094e-07 -2.98074e-07     0.420631 
         -50      29.1856 -4.82053e-07 -3.00084e-07      0.42054 
         -50      29.5183 -4.75416e-07 -3.01576e-07     0.420448 
         -50      29.8528 -4.70553e-07  -3.0249e-07     0.420355 
         -50      30.1891  -4.6758e-07 -3.02859e-07     0.420262 
         -50      30.5273  -4.6635e-07 -3.02806e-07     0.420167 
         -50      30.8676 -4.66465e-07 -3.02513e-07     0.420071 
         -50      31.2096 -4.67306e-07 -3.02203e-07     0.419975 
         -50      31.5534 -4.68104e-07 -3.02095e-07     0.419877 
         -50      31.8992 -4.68033e-07 -3.02361e-07     0.419779 
         -50      32.2469 -4.66348e-07 -3.03067e-07     0.419679 
         -50      32.5965 -4.62562e-07 -3.04099e-07     0.419579 
         -50      32.9479 -4.56655e-07 -3.05084e-07     0.419478 
         -50      33.3012 -4.49348e-07 -3.05294e-07     0.419376 
         -50      33.6565 -4.42411e-07 -3.03525e-07     0.419274 
         -50      34.0135 -4.39049e-07 -2.97979e-07      0.41917 
         -50      34.3725 -4.45536e-07 -2.92087e-07     0.419066 
         -50      34.7334  -4.4283e-07 -2.81942e-07      0.41896 
         -50      35.0962 -4.31035e-07 -2.59136e-07     0.418854 
         -50      35.4608 -4.29096e-07 -2.55819e-07     0.418747 
         -50      35.8272 -4.32679e-07 -2.67172e-07      0.41864 
         -50      36.1957   -4.326e-07 -2.73387e-07     0.418531 
         -50       36.566 -4.30354e-07 -2.76898e-07     0.418422 
         -50      36.9381 -4.27017e-07 -2.79169e-07     0.418312 
         -50      37.3121 -4.23305e-07 -2.80924e-07     0.418201 
         -50      37.6882 -4.19641e-07 -2.82377e-07      0.41809 
         -50       38.066 -4.16219e-07 -2.83424e-07     0.417978 
         -50      38.4456 -4.13061e-07 -2.83828e-07     0.417865 
         -50      38.8272 -4.10082e-07 -2.83352e-07     0.417751 
         -50      39.2108 -4.07151e-07 -2.81873e-07     0.417637 
         -50      39.5961 -4.04155e-07 -2.79455e-07     0.417522 
         -50      39.9833 -4.01047e-07  -2.7637e-07     0.417406 
         -50      40.3724 -3.97912e-07 -2.73081e-07      0.41729 
         -50      40.7635 -3.95009e-07 -2.70165e-07     0.417173 
         -50      41.1564 -3.92831e-07 -2.68186e-07     0.417055 
         -50      41.5511  -3.9214e-07 -2.67488e-07     0.416937 
         -50      41.9479 -3.94011e-07 -2.67939e-07     0.416819 
         -50      42.3464 -3.98582e-07 -2.68366e-07     0.416699 
         -50      42.7468 -3.92069e-07 -2.66564e-07     0.416579 
         -50      43.1491 -3.87052e-07  -2.6501e-07     0.416459 
         -50      43.5534 -3.83577e-07 -2.63206e-07     0.416338 
         -50      43.9595 -3.81248e-07 -2.61207e-07     0.416216 
         -50      44.3674 -3.79266e-07 -2.59385e-07     0.416094 
         -50      44.7772 -3.76513e-07 -2.58204e-07     0.415972 
         -50      45.1891 -3.71626e-07 -2.58002e-07     0.415849 
         -50      45.6027 -3.63097e-07 -2.58774e-07     0.415725 
         -50      46.0181 -3.58657e-07 -2.59275e-07     0.415601 
         -50      46.4355 -3.63337e-07 -2.58011e-07     0.415477 
         -50      46.8549 -3.64481e-07 -2.56163e-07     0.415352 
         -50       47.276 -3.63018e-07 -2.54183e-07     0.415227 
         -50       47.699 -3.59793e-07 -2.52388e-07     0.415101 
         -50      48.1241 -3.55534e-07 -2.50909e-07     0.414975 
         -50      48.5508 -3.50852e-07 -2.49684e-07     0.414849 
         -50      48.9795 -3.46225e-07 -2.48491e-07     0.414722 
         -50        49.41 -3.42031e-07  -2.4705e-07     0.414595 
         -50      49.8426 -3.38566e-07 -2.45157e-07     0.414468 
         -50      50.2769 -3.36114e-07 -2.42909e-07      0.41434 
         -50      50.7131 -3.34996e-07 -2.40962e-07     0.414212 
         -50      51.1512 -3.35679e-07 -2.40891e-07     0.414084 
         -50      51.5914 -3.38882e-07 -2.45611e-07     0.413955 
         -50      52.0332 -3.34024e-07 -2.42299e-07     0.413826 
         -50      52.4769 -3.28849e-07 -2.39145e-07     0.413697 
         -50      52.9225 -3.25554e-07 -2.38765e-07     0.413568 
         -50      53.3702 -3.23171e-07 -2.39642e-07     0.413439 
         -50      53.8196 -3.21031e-07 -2.40695e-07     0.413309 
         -50      54.2709  -3.1872e-07 -2.41232e-07     0.413179 
         -50      54.7242 -3.16038e-07 -2.40903e-07     0.413049 
         -50      55.1792  -3.1296e-07 -2.39643e-07     0.412919 
         -50      55.6362 -3.09587e-07  -2.3761e-07     0.412789 
         -50       56.095 -3.06099e-07 -2.35121e-07     0.412659 
         -50      56.5558 -3.02713e-07 -2.32566e-07     0.412528 
         -50      57.0184 -2.99633e-07  -2.3034e-07     0.412398 
         -50      57.4829    -2.97e-07 -2.28739e-07     0.412267 
         -50      57.9492  -2.9484e-07 -2.27868e-07     0.412136 
         -50      58.4176  -2.9302e-07 -2.27531e-07     0.412005 
         -50      58.8877 -2.91192e-07 -2.27117e-07     0.411875 
         -50      59.3597 -2.88739e-07 -2.25474e-07     0.411744 
         -50      59.8336 -2.90222e-07 -2.27415e-07     0.411613 
         -50      60.3096  -2.9083e-07 -2.29221e-07     0.411482 
         -50      60.7872 -2.89546e-07 -2.29601e-07     0.411352 
         -50      61.2667 -2.86984e-07 -2.28967e-07     0.411221 
         -50      61.7484 -2.83575e-07 -2.27644e-07      0.41109 
         -50      62.2317 -2.79544e-07  -2.2587e-07      0.41096 
         -50      62.7168 -2.74865e-07 -2.23789e-07     0.410829 
         -50      63.2039 -2.69242e-07 -2.21445e-07     0.410699 
         -50      63.6931  -2.6728e-07 -2.20475e-07     0.410569 
         -50      64.1839 -2.68978e-07 -2.20124e-07     0.410438 
         -50      64.6766  -2.6984e-07  -2.1909e-07     0.410309 
         -50      65.1712  -2.6987e-07 -2.17733e-07     0.410179 
         -50      65.6679 -2.69111e-07 -2.16292e-07     0.410049 
         -50      66.1663  -2.6765e-07 -2.14905e-07     0.409919 
         -50      66.6665   -2.656e-07  -2.1364e-07      0.40979 
         -50      67.1687 -2.63104e-07 -2.12509e-07     0.409661 
         -50      67.6729  -2.6032e-07 -2.11492e-07     0.409532 
         -50      68.1788 -2.57415e-07 -2.10553e-07     0.409404 
         -50      68.6866 -2.54553e-07 -2.09647e-07     0.409275 
         -50      69.1963 -2.51883e-07 -2.08736e-07     0.409147 
         -50      69.7081 -2.49526e-07 -2.07786e-07     0.409019 
         -50      70.2215 -2.47563e-07 -2.06776e-07     0.408892 
         -50      70.7368 -2.46011e-07 -2.05684e-07     0.408764 
         -50      71.2543 -2.44811e-07 -2.04486e-07     0.408637 
         -50      71.7734 -2.43809e-07 -2.03138e-07     0.408511 
         -50      72.2943 -2.42728e-07 -2.01554e-07     0.408385 
         -50      72.8172 -2.41148e-07 -1.99582e-07     0.408259 
         -50      73.3422 -2.38437e-07 -1.97271e-07     0.408133 
         -50      73.8688 -2.35013e-07 -1.99499e-07     0.408008 
         -50      74.3973 -2.33286e-07 -1.98732e-07     0.407883 
         -50      74.9277 -2.32753e-07 -1.96418e-07     0.407759 
         -50      75.4602 -2.32618e-07   -1.934e-07     0.407635 
         -50      75.9944 -2.28584e-07 -1.94484e-07     0.407511 
         -50      76.5305 -2.25007e-07 -1.95654e-07     0.407388 
         -50      77.0684 -2.23477e-07 -1.94716e-07     0.407265 
         -50      77.6084 -2.23278e-07 -1.92326e-07     0.407143 
         -50      78.1502 -2.23849e-07 -1.89048e-07     0.407021 
         -50      78.6937 -2.24775e-07 -1.85345e-07       0.4069 
         -50      79.2394 -2.25776e-07 -1.81583e-07     0.406779 
         -50      79.7868 -2.25364e-07 -1.79095e-07     0.406659 
         -50      80.3361 -2.20508e-07 -1.80065e-07     0.406539 
         -50      80.8872 -2.16526e-07 -1.80007e-07      0.40642 
         -50      81.4404 -2.13425e-07 -1.78983e-07     0.406302 
         -50      81.9953 -2.11159e-07 -1.77146e-07     0.406184 
         -50      82.5521 -2.09634e-07 -1.74708e-07     0.406066 
         -50      83.1108 -2.08717e-07 -1.71905e-07     0.405949 
         -50      83.6715 -2.08243e-07 -1.68968e-07     0.405833 
         -50       84.234 -2.08029e-07 -1.66111e-07     0.405717 
         -50      84.7983 -2.07881e-07 -1.63498e-07     0.405602 
         -50      85.3645 -2.07608e-07 -1.61238e-07     0.405488 
         -50      85.9328 -2.07036e-07 -1.59375e-07     0.405374 
         -50      86.5028 -2.06028e-07 -1.57888e-07      0.40526 
         -50      87.0747 -2.04494e-07  -1.5669e-07     0.405148 
         -50      87.6486 -2.02417e-07 -1.55641e-07     0.405036 
         -50      88.2243 -1.99872e-07 -1.54571e-07     0.404925 
         -50      88.8018 -1.97051e-07 -1.53295e-07     0.404814 
         -50      89.3812 -1.94284e-07 -1.51656e-07     0.404704 
         -50      89.9627  -1.9207e-07 -1.49559e-07     0.404595 
         -50      90.5458 -1.91109e-07 -1.47032e-07     0.404487 
         -50      91.1309 -1.91896e-07 -1.44397e-07     0.404379 
         -50      91.7178 -1.91802e-07 -1.42285e-07     0.404272 
         -50      92.3069 -1.91182e-07 -1.40302e-07     0.404166 
         -50      92.8976 -1.89958e-07 -1.38559e-07     0.404061 
         -50      93.4901 -1.88195e-07   -1.371e-07     0.403956 
         -50      94.0846 -1.86063e-07 -1.35913e-07     0.403852 
         -50      94.6812 -1.83804e-07 -1.34928e-07     0.403749 
         -50      95.2794   -1.817e-07  -1.3402e-07     0.403647 
         -50      95.8796  -1.8003e-07 -1.33008e-07     0.403545 
         -50      96.4818 -1.79037e-07 -1.31659e-07     0.403445 
         -50      97.0857 -1.78886e-07 -1.29685e-07     0.403345 
         -50      97.6915 -1.79623e-07 -1.26746e-07     0.403246 
         -50      98.2991 -1.80269e-07 -1.24017e-07     0.403148 
         -50      98.9089 -1.78915e-07 -1.24141e-07     0.403051 
         -50      99.5203 -1.77514e-07 -1.23577e-07     0.402954 
         -50      100.134 -1.76113e-07 -1.22487e-07     0.402859 
         -50      100.749 -1.74753e-07  -1.2102e-07     0.402764 
         -50      101.366 -1.73465e-07 -1.19301e-07     0.402671 
         -50      101.985 -1.72271e-07 -1.17442e-07     0.402578 
         -50      102.606 -1.71182e-07 -1.15528e-07     0.402486 
         -50      103.229 -1.70196e-07 -1.13627e-07     0.402395 
         -50      103.854 -1.69305e-07 -1.11784e-07     0.402305 
         -50       104.48 -1.68488e-07 -1.10029e-07     0.402216 
         -50      105.108 -1.67721e-07 -1.08369e-07     0.402128 
         -50      105.739  -1.6697e-07   -1.068e-07     0.402041 
         -50      106.371 -1.66204e-07 -1.05302e-07     0.401955 
         -50      107.005 -1.65393e-07 -1.03849e-07      0.40187 
         -50      107.641 -1.64513e-07 -1.02411e-07     0.401786 
         -50      108.279 -1.63552e-07 -1.00956e-07     0.401702 
         -50      108.919  -1.6252e-07  -9.9465e-08      0.40162 
         -50       109.56 -1.61452e-07 -9.79287e-08     0.401539 
         -50      110.204 -1.60418e-07 -9.63632e-08     0.401459 
         -50      110.849 -1.59532e-07 -9.48157e-08     0.401381 
         -50      111.497 -1.58963e-07 -9.33773e-08     0.401303 
         -50      112.146  -1.5943e-07 -9.10187e-08     0.401226 
         -50      112.797 -1.60165e-07 -8.84444e-08     0.401151 
         -50       113.45 -1.60425e-07 -8.67165e-08     0.401076 
         -50      114.105 -1.60309e-07 -8.54255e-08     0.401002 
         -50      114.761 -1.59897e-07 -8.42717e-08     0.400929 
         -50       115.42  -1.5926e-07 -8.30552e-08     0.400858 
         -50      116.081 -1.58468e-07 -8.16602e-08     0.400787 
         -50      116.743 -1.57589e-07 -8.00434e-08     0.400718 
         -50      117.407 -1.56688e-07 -7.82164e-08      0.40065 
         -50      118.073 -1.55823e-07 -7.62321e-08     0.400584 
         -50      118.741 -1.55038e-07 -7.41723e-08     0.400519 
         -50      119.411 -1.54347e-07 -7.21279e-08     0.400455 
         -50      120.083 -1.53717e-07 -7.01859e-08     0.400392 
         -50      120.757 -1.53047e-07 -6.84124e-08     0.400331 
         -50      121.432 -1.52145e-07 -6.68388e-08      0.40027 
         -50       122.11 -1.50686e-07 -6.54415e-08      0.40021 
         -50      122.789 -1.48186e-07 -6.41274e-08     0.400151 
         -50       123.47 -1.50592e-07 -6.22424e-08     0.400095 
         -50      124.153 -1.51587e-07 -6.04378e-08     0.400039 
         -50      124.838 -1.51558e-07 -5.86884e-08     0.399985 
         -50      125.525 -1.50838e-07 -5.69654e-08     0.399933 
         -50      126.214 -1.49685e-07 -5.52395e-08     0.399881 
         -50      126.905 -1.48301e-07  -5.3486e-08     0.399831 
         -50      127.597 -1.46832e-07 -5.16834e-08     0.399782 
         -50      128.292 -1.45381e-07 -4.98188e-08     0.399734 
         -50      128.988 -1.44023e-07 -4.78931e-08     0.399687 
         -50      129.686 -1.42803e-07 -4.59203e-08     0.399642 
         -50      130.386 -1.41758e-07 -4.39344e-08     0.399597 
         -50      131.088 -1.40922e-07 -4.19921e-08     0.399554 
         -50      131.792 -1.40337e-07 -4.01806e-08     0.399512 
         -50      132.497  -1.4007e-07 -3.86172e-08     0.399471 
         -50      133.205 -1.40217e-07 -3.74584e-08     0.399431 
         -50      133.915 -1.40921e-07 -3.69041e-08     0.399392 
         -50      134.626 -1.42266e-07 -3.56976e-08     0.399355 
         -50      135.339 -1.44896e-07 -3.17277e-08      0.39932 
         -50      136.054 -1.48476e-07  -2.8651e-08     0.399287 
         -50      136.771 -1.51826e-07 -2.62529e-08     0.399254 
         -50       137.49 -1.54023e-07 -2.43521e-08     0.399223 
         -50      138.211  -1.5448e-07 -2.27916e-08     0.399193 
         -50      138.934 -1.52971e-07 -2.14396e-08     0.399164 
         -50      139.658 -1.49646e-07 -2.01887e-08     0.399137 
         -50      140.385 -1.45004e-07 -1.89504e-08     0.399111 
         -50      141.113 -1.39834e-07 -1.76562e-08     0.399088 
         -50      141.843 -1.35127e-07 -1.62556e-08     0.399066 
         -50      142.575 -1.31944e-07  -1.4718e-08     0.399045 
         -50      143.309 -1.31246e-07 -1.30295e-08     0.399027 
         -50      144.045 -1.33685e-07  -1.1196e-08      0.39901 
         -50      144.783 -1.39356e-07 -9.24295e-09     0.398994 
         -50      145.523  -1.4749e-07 -7.22065e-09      0.39898 
         -50      146.264 -1.56123e-07  -5.2023e-09     0.398968 
         -50      147.007 -1.61697e-07 -3.29025e-09     0.398958 
         -50      147.753 -1.58611e-07 -1.61885e-09     0.398949 
         -50        148.5 -1.38736e-07 -3.61811e-10     0.398942 
         -50      149.249 -9.08531e-08   2.6621e-10     0.398937 
         -50          150 -8.17304e-22  5.63268e-24     0.398934 
         -25            0           -0           -0     0.408743 
         -25     0.000942 -1.35304e-07  4.22874e-12     0.408743 
         -25     0.003768 -4.13053e-07  3.13961e-12     0.408743 
         -25     0.008478  -5.8071e-07 -3.75738e-11     0.408743 
         -25     0.015075 -5.24925e-07 -1.57502e-10     0.408743 
         -25     0.023553 -3.83358e-07 -3.90205e-10     0.408743 
         -25     0.033916 -3.45445e-07 -7.64631e-10     0.408743 
         -25     0.046163 -3.61761e-07 -1.31092e-09     0.408743 
         -25       0.0603 -2.70146e-07 -2.05388e-09     0.408743 
         -25     0.076315 -2.72541e-07 -2.99899e-09     0.408743 
         -25     0.094215 -2.02418e-07 -4.15669e-09     0.408743 
         -25     0.113999 -1.60664e-07 -5.49246e-09     0.408743 
         -25     0.135675  -1.1392e-07  -6.9783e-09     0.408743 
         -25     0.159228 -7.33717e-08 -8.57115e-09     0.408743 
         -25     0.184664 -3.59025e-08 -1.02273e-08     0.408743 
         -25     0.211985 -5.72016e-10    -1.19e-08     0.408743 
         -25     0.241201  2.66785e-08 -1.35499e-08     0.408743 
         -25      0.27229  5.20269e-08 -1.51503e-08     0.408743 
         -25     0.305263  7.17055e-08 -1.66502e-08     0.408743 
         -25     0.340135  8.73895e-08 -1.80437e-08     0.408743 
         -25     0.376877  9.90812e-08 -1.93484e-08     0.408743 
         -25     0.415503  1.06972e-07 -2.06101e-08     0.408743 
         -25     0.456013  1.11186e-07 -2.18962e-08     0.408743 
         -25     0.498424  1.11558e-07 -2.32805e-08     0.408743 
         -25     0.542703  1.07532e-07  -2.4808e-08     0.408743 
         -25     0.588866  9.84034e-08 -2.64388e-08     0.408742 
         -25     0.636912  8.37132e-08 -2.79755e-08     0.408742 
         -25     0.686864  6.27279e-08  -2.9972e-08     0.408742 
         -25     0.738679  3.53214e-08  -3.2537e-08     0.408742 
         -25     0.792379  1.89121e-09 -3.55896e-08     0.408742 
         -25     0.847962 -3.65912e-08 -3.90468e-08     0.408741 
         -25     0.905453 -7.87366e-08 -4.28236e-08     0.408741 
         -25     0.964806 -1.22852e-07 -4.68231e-08     0.408741 
         -25      1.02604 -1.67278e-07 -5.09439e-08     0.408741 
         -25      1.08919 -2.10599e-07 -5.50759e-08      0.40874 
         -25      1.15419 -2.51835e-07  -5.9101e-08      0.40874 
         -25      1.22108 -2.90721e-07 -6.29175e-08      0.40874 
         -25      1.28985  -3.2767e-07 -6.64613e-08     0.408739 
         -25      1.36054 -3.63598e-07 -6.97569e-08     0.408739 
         -25      1.43308 -3.99283e-07 -7.29858e-08     0.408738 
         -25      1.50751 -4.34439e-07 -7.65914e-08     0.408738 
         -25      1.58382 -4.76511e-07  -7.9481e-08     0.408737 
         -25      1.66204 -5.20364e-07 -8.20856e-08     0.408736 
         -25      1.74212 -5.64504e-07 -8.44983e-08     0.408736 
         -25      1.82409 -6.07656e-07 -8.67823e-08     0.408735 
         -25      1.90793  -6.4871e-07 -8.89654e-08     0.408734 
         -25       1.9937  -6.8677e-07 -9.10416e-08     0.408733 
         -25      2.08131 -7.21092e-07 -9.29694e-08     0.408732 
         -25      2.17081 -7.51182e-07 -9.46804e-08     0.408731 
         -25      2.26223 -7.76726e-07 -9.60812e-08      0.40873 
         -25       2.3555 -7.97556e-07 -9.70595e-08     0.408729 
         -25      2.45065 -8.13687e-07 -9.74972e-08     0.408728 
         -25      2.54769 -8.25245e-07 -9.72787e-08     0.408727 