Variables = x, y, u, v, p

Zone, I=3600, F=POINT
         -50            0            0            0      1.25821 
         -50     0.000942 -2.02332e-07   4.3507e-11      1.25821 
         -50     0.003768 -6.39262e-07  1.31239e-10      1.25821 
         -50     0.008478 -9.67398e-07  1.70547e-10      1.25821 
         -50     0.015075 -1.00871e-06  9.40766e-11      1.25821 
         -50     0.023553 -9.10781e-07 -9.52238e-11      1.25821 
         -50     0.033916 -9.20169e-07  -3.5451e-10      1.25821 
         -50     0.046163 -1.01183e-06 -6.67447e-10      1.25821 
         -50       0.0603 -9.88365e-07  -1.0463e-09      1.25821 
         -50     0.076315 -1.05349e-06 -1.50333e-09      1.25821 
         -50     0.094215 -1.05357e-06 -2.16271e-09      1.25821 
         -50     0.113999 -1.07695e-06 -2.94264e-09      1.25821 
         -50     0.135675 -1.09281e-06 -3.91705e-09      1.25821 
         -50     0.159228   -1.108e-06 -5.08534e-09      1.25821 
         -50     0.184664 -1.12015e-06 -6.44603e-09      1.25821 
         -50     0.211985 -1.12841e-06 -8.01441e-09      1.25821 
         -50     0.241201 -1.13658e-06 -9.83174e-09      1.25821 
         -50      0.27229 -1.14067e-06 -1.19867e-08      1.25821 
         -50     0.305263 -1.14362e-06 -1.46317e-08      1.25821 
         -50     0.340135 -1.14503e-06 -1.77433e-08      1.25821 
         -50     0.376877 -1.14567e-06 -2.08609e-08      1.25821 
         -50     0.415503 -1.14604e-06 -2.33649e-08      1.25821 
         -50     0.456013 -1.14637e-06 -2.49004e-08       1.2582 
         -50     0.498424 -1.14663e-06 -2.58067e-08       1.2582 
         -50     0.542703 -1.14659e-06 -2.72999e-08       1.2582 
         -50     0.588866 -1.14584e-06 -3.10171e-08       1.2582 
         -50     0.636912 -1.14379e-06 -3.70313e-08       1.2582 
         -50     0.686864 -1.14095e-06 -4.26646e-08       1.2582 
         -50     0.738679 -1.13689e-06 -4.78266e-08       1.2582 
         -50     0.792379 -1.13105e-06 -5.26907e-08       1.2582 
         -50     0.847962 -1.12315e-06 -5.73252e-08      1.25819 
         -50     0.905453 -1.11312e-06 -6.17162e-08      1.25819 
         -50     0.964806 -1.10106e-06 -6.57907e-08      1.25819 
         -50      1.02604 -1.08716e-06 -6.94661e-08      1.25819 
         -50      1.08919  -1.0716e-06 -7.26867e-08      1.25819 
         -50      1.15419 -1.05449e-06 -7.54574e-08      1.25818 
         -50      1.22108 -1.03578e-06 -7.78683e-08      1.25818 
         -50      1.28985 -1.01536e-06 -8.00709e-08      1.25818 
         -50      1.36054 -9.93161e-07 -8.22001e-08      1.25817 
         -50      1.43308 -9.69588e-07 -8.42008e-08      1.25817 
         -50      1.50751 -9.45884e-07  -8.5444e-08      1.25816 
         -50      1.58382 -9.10995e-07 -8.37237e-08      1.25816 
         -50      1.66204  -8.8168e-07 -8.69509e-08      1.25815 
         -50      1.74212 -8.56693e-07 -9.22071e-08      1.25815 
         -50      1.82409 -8.35029e-07 -9.73399e-08      1.25814 
         -50      1.90793  -8.1598e-07 -1.00961e-07      1.25814 
         -50       1.9937 -7.99108e-07 -1.02414e-07      1.25813 
         -50      2.08131 -7.84249e-07 -1.01702e-07      1.25812 
         -50      2.17081 -7.71438e-07 -9.93843e-08      1.25811 
         -50      2.26223 -7.60883e-07 -9.64339e-08      1.25811 
         -50       2.3555 -7.52908e-07 -9.40723e-08       1.2581 
         -50      2.45065 -7.47858e-07 -9.35738e-08      1.25809 
         -50      2.54769  -7.4603e-07 -9.60693e-08      1.25808 
         -50      2.64665 -7.47594e-07 -1.02352e-07      1.25807 
         -50      2.74746   -7.525e-07 -1.12689e-07      1.25806 
         -50      2.85014 -7.60419e-07 -1.26708e-07      1.25805 
         -50      2.95472 -7.70684e-07 -1.43325e-07      1.25803 
         -50      3.06122  -7.8228e-07 -1.60801e-07      1.25802 
         -50      3.16956 -7.93847e-07 -1.76905e-07      1.25801 
         -50      3.27979 -8.03792e-07 -1.89334e-07      1.25799 
         -50       3.3919 -8.10436e-07 -1.96321e-07      1.25798 
         -50      3.50594  -8.1228e-07 -1.97573e-07      1.25796 
         -50      3.62181 -8.08393e-07 -1.95602e-07      1.25795 
         -50      3.73958 -7.98964e-07 -1.97507e-07      1.25793 
         -50      3.85927 -8.02134e-07 -1.88224e-07      1.25791 
         -50       3.9808 -8.14493e-07 -1.86686e-07      1.25789 
         -50      4.10422 -8.22091e-07  -1.9292e-07      1.25787 
         -50      4.22952 -8.22777e-07 -1.91205e-07      1.25785 
         -50      4.35675 -8.22003e-07 -1.84804e-07      1.25783 
         -50      4.48582 -8.22054e-07 -1.77212e-07      1.25781 
         -50      4.61677 -8.23221e-07  -1.7144e-07      1.25779 
         -50      4.74961 -8.24862e-07 -1.69429e-07      1.25776 
         -50      4.88438  -8.2626e-07 -1.71625e-07      1.25774 
         -50      5.02099 -8.27143e-07 -1.76796e-07      1.25771 
         -50      5.15948 -8.27747e-07 -1.82189e-07      1.25768 
         -50      5.29985 -8.28237e-07 -1.84118e-07      1.25765 
         -50      5.44217 -8.27323e-07 -1.79091e-07      1.25762 
         -50      5.58631 -8.30437e-07 -1.87265e-07      1.25759 
         -50      5.73233 -8.33476e-07 -1.91337e-07      1.25756 
         -50      5.88024 -8.37233e-07 -1.91716e-07      1.25752 
         -50       6.0301 -8.41848e-07  -1.9197e-07      1.25749 
         -50      6.18178 -8.46732e-07 -1.94835e-07      1.25745 
         -50      6.33534 -8.50733e-07 -1.99994e-07      1.25742 
         -50      6.49085 -8.52137e-07 -2.03056e-07      1.25738 
         -50      6.64818 -8.48487e-07 -1.96119e-07      1.25734 
         -50      6.80739 -8.43263e-07 -1.80823e-07       1.2573 
         -50      6.96849 -8.50585e-07  -1.8471e-07      1.25725 
         -50      7.13154 -8.49811e-07  -1.8189e-07      1.25721 
         -50      7.29641 -8.48438e-07  -1.7786e-07      1.25716 
         -50      7.46316 -8.40323e-07 -1.68488e-07      1.25711 
         -50       7.6318 -8.33276e-07 -1.59373e-07      1.25706 
         -50      7.80239 -8.30424e-07 -1.53072e-07      1.25701 
         -50      7.97479 -8.31404e-07 -1.49396e-07      1.25696 
         -50      8.14908 -8.34464e-07 -1.46837e-07      1.25691 
         -50      8.32526 -8.38034e-07  -1.4378e-07      1.25685 
         -50      8.50338  -8.4161e-07 -1.39352e-07      1.25679 
         -50      8.68333 -8.45723e-07 -1.33817e-07      1.25673 
         -50      8.86515 -8.47706e-07 -1.35276e-07      1.25667 
         -50      9.04894 -8.50032e-07 -1.40427e-07      1.25661 
         -50      9.23453 -8.41517e-07 -1.39759e-07      1.25654 
         -50      9.42201 -8.38892e-07 -1.35294e-07      1.25648 
         -50      9.61137 -8.41729e-07 -1.38699e-07      1.25641 
         -50      9.80269 -8.41312e-07 -1.41419e-07      1.25634 
         -50      9.99583  -8.3975e-07 -1.42198e-07      1.25626 
         -50      10.1908 -8.38266e-07 -1.42134e-07      1.25619 
         -50      10.3877 -8.37389e-07 -1.43119e-07      1.25611 
         -50      10.5866 -8.37153e-07 -1.46607e-07      1.25603 
         -50      10.7873 -8.37279e-07 -1.52798e-07      1.25595 
         -50      10.9898 -8.37365e-07 -1.60377e-07      1.25587 
         -50      11.1943 -8.37044e-07 -1.66891e-07      1.25578 
         -50      11.4007 -8.36138e-07 -1.69927e-07       1.2557 
         -50      11.6089 -8.34766e-07 -1.69227e-07      1.25561 
         -50       11.819 -8.33429e-07 -1.69908e-07      1.25552 
         -50       12.031 -8.33071e-07 -1.71535e-07      1.25542 
         -50      12.2449 -8.32919e-07 -1.71662e-07      1.25532 
         -50      12.4606 -8.33931e-07 -1.73941e-07      1.25523 
         -50      12.6782 -8.33726e-07  -1.7582e-07      1.25512 
         -50      12.8978 -8.25786e-07 -1.76766e-07      1.25502 
         -50      13.1192 -8.26099e-07  -1.7856e-07      1.25492 
         -50      13.3425 -8.32548e-07 -1.83283e-07      1.25481 
         -50      13.5677 -8.33219e-07 -1.89462e-07       1.2547 
         -50      13.7948 -8.29792e-07 -1.95637e-07      1.25458 
         -50      14.0237  -8.2414e-07 -2.00945e-07      1.25447 
         -50      14.2546 -8.18056e-07 -2.05089e-07      1.25435 
         -50      14.4873 -8.13017e-07 -2.08229e-07      1.25423 
         -50      14.7219 -8.09983e-07 -2.10824e-07       1.2541 
         -50      14.9584 -8.09236e-07 -2.13416e-07      1.25398 
         -50      15.1968 -8.10274e-07 -2.16339e-07      1.25385 
         -50      15.4371  -8.1178e-07 -2.19344e-07      1.25371 
         -50      15.6792 -8.11651e-07 -2.21135e-07      1.25358 
         -50      15.9232 -8.07144e-07 -2.18807e-07      1.25344 
         -50      16.1691 -8.00799e-07 -2.13772e-07       1.2533 
         -50       16.417 -7.99123e-07 -2.11829e-07      1.25316 
         -50      16.6666 -7.99629e-07 -2.12694e-07      1.25302 
         -50      16.9182 -8.00309e-07 -2.15772e-07      1.25287 
         -50      17.1716 -7.99335e-07 -2.19785e-07      1.25272 
         -50       17.427   -7.946e-07 -2.22473e-07      1.25256 
         -50      17.6842 -7.90178e-07 -2.20757e-07      1.25241 
         -50      17.9433 -7.86278e-07 -2.24099e-07      1.25225 
         -50      18.2042 -7.81765e-07 -2.30806e-07      1.25208 
         -50      18.4672 -7.77778e-07 -2.37105e-07      1.25192 
         -50      18.7319 -7.75107e-07 -2.40633e-07      1.25175 
         -50      18.9985 -7.73794e-07 -2.41355e-07      1.25158 
         -50       19.267 -7.72804e-07 -2.42051e-07       1.2514 
         -50      19.5375 -7.69749e-07 -2.48355e-07      1.25123 
         -50      19.8098 -7.61877e-07 -2.64824e-07      1.25105 
         -50       20.084 -7.63175e-07 -2.56288e-07      1.25086 
         -50      20.3601 -7.63893e-07 -2.53361e-07      1.25068 
         -50       20.638 -7.63114e-07 -2.54445e-07      1.25049 
         -50      20.9178 -7.60642e-07 -2.58178e-07       1.2503 
         -50      21.1995 -7.56777e-07 -2.63427e-07       1.2501 
         -50      21.4832 -7.52112e-07 -2.69274e-07      1.24991 
         -50      21.7687 -7.47354e-07 -2.74996e-07       1.2497 
         -50       22.056 -7.43152e-07 -2.80065e-07       1.2495 
         -50      22.3452 -7.39982e-07 -2.84124e-07      1.24929 
         -50      22.6365 -7.38044e-07 -2.86984e-07      1.24908 
         -50      22.9295 -7.37223e-07 -2.88604e-07      1.24887 
         -50      23.2243  -7.3708e-07 -2.89089e-07      1.24866 
         -50      23.5211 -7.36912e-07 -2.88678e-07      1.24844 
         -50      23.8199 -7.35868e-07 -2.87736e-07      1.24821 
         -50      24.1204 -7.33147e-07 -2.86756e-07      1.24799 
         -50      24.4228 -7.28263e-07 -2.86349e-07      1.24776 
         -50      24.7272 -7.21406e-07  -2.8725e-07      1.24753 
         -50      25.0334 -7.13911e-07 -2.90323e-07       1.2473 
         -50      25.3415 -7.08814e-07 -2.96567e-07      1.24706 
         -50      25.6514 -7.10848e-07 -3.05777e-07      1.24682 
         -50      25.9634 -7.18592e-07 -3.08499e-07      1.24658 
         -50      26.2771  -7.1796e-07  -3.1398e-07      1.24633 
         -50      26.5927  -7.2176e-07 -3.09428e-07      1.24608 
         -50      26.9102  -7.2098e-07 -3.06618e-07      1.24583 
         -50      27.2297 -7.12881e-07 -3.05772e-07      1.24558 
         -50       27.551 -7.02987e-07 -3.07855e-07      1.24532 
         -50      27.8741 -6.93437e-07 -3.11935e-07      1.24506 
         -50      28.1991 -6.84941e-07 -3.16976e-07       1.2448 
         -50      28.5262 -6.77927e-07 -3.22128e-07      1.24453 
         -50       28.855 -6.72581e-07 -3.26738e-07      1.24426 
         -50      29.1856 -6.68858e-07 -3.30364e-07      1.24399 
         -50      29.5183 -6.66528e-07 -3.32769e-07      1.24372 
         -50      29.8528 -6.65214e-07 -3.33908e-07      1.24344 
         -50      30.1891 -6.64433e-07  -3.3392e-07      1.24316 
         -50      30.5273 -6.63644e-07 -3.33097e-07      1.24288 
         -50      30.8676 -6.62303e-07 -3.31844e-07      1.24259 
         -50      31.2096 -6.59925e-07 -3.30636e-07       1.2423 
         -50      31.5534 -6.56144e-07 -3.29949e-07      1.24201 
         -50      31.8992 -6.50786e-07 -3.30193e-07      1.24172 
         -50      32.2469 -6.43948e-07 -3.31617e-07      1.24142 
         -50      32.5965 -6.36084e-07 -3.34199e-07      1.24112 
         -50      32.9479 -6.28091e-07 -3.37532e-07      1.24082 
         -50      33.3012  -6.2141e-07 -3.40672e-07      1.24052 
         -50      33.6565 -6.18134e-07  -3.4198e-07      1.24021 
         -50      34.0135 -6.21126e-07 -3.38931e-07       1.2399 
         -50      34.3725 -6.22769e-07 -3.41859e-07      1.23959 
         -50      34.7334 -6.19855e-07  -3.4719e-07      1.23928 
         -50      35.0962 -6.15212e-07 -3.47236e-07      1.23896 
         -50      35.4608 -6.07552e-07 -3.50603e-07      1.23865 
         -50      35.8272 -5.98579e-07 -3.58438e-07      1.23833 
         -50      36.1957 -5.90756e-07 -3.63776e-07        1.238 
         -50       36.566 -5.84656e-07 -3.66403e-07      1.23768 
         -50      36.9381 -5.80422e-07 -3.66653e-07      1.23735 
         -50      37.3121 -5.77897e-07 -3.65161e-07      1.23702 
         -50      37.6882 -5.76725e-07  -3.6267e-07      1.23669 
         -50       38.066 -5.76446e-07 -3.59875e-07      1.23635 
         -50      38.4456  -5.7657e-07 -3.57299e-07      1.23602 
         -50      38.8272 -5.76643e-07 -3.55226e-07      1.23568 
         -50      39.2108 -5.76289e-07 -3.53681e-07      1.23534 
         -50      39.5961 -5.75234e-07 -3.52476e-07        1.235 
         -50      39.9833 -5.73303e-07 -3.51309e-07      1.23465 
         -50      40.3724 -5.70391e-07 -3.49952e-07      1.23431 
         -50      40.7635 -5.66413e-07 -3.48499e-07      1.23396 
         -50      41.1564 -5.61215e-07 -3.47716e-07      1.23361 
         -50      41.5511 -5.54453e-07 -3.49469e-07      1.23326 
         -50      41.9479 -5.45428e-07 -3.57272e-07      1.23291 
         -50      42.3464 -5.32873e-07 -3.74027e-07      1.23255 
         -50      42.7468 -5.23313e-07 -3.68436e-07       1.2322 
         -50      43.1491  -5.2049e-07 -3.64727e-07      1.23184 
         -50      43.5534 -5.20759e-07 -3.61858e-07      1.23148 
         -50      43.9595 -5.21833e-07 -3.59294e-07      1.23112 
         -50      44.3674 -5.22424e-07 -3.56981e-07      1.23075 
         -50      44.7772 -5.21867e-07 -3.55321e-07      1.23039 
         -50      45.1891 -5.19723e-07 -3.55137e-07      1.23002 
         -50      45.6027 -5.15382e-07 -3.57627e-07      1.22966 
         -50      46.0181 -5.09865e-07 -3.58475e-07      1.22929 
         -50      46.4355 -5.05745e-07 -3.54229e-07      1.22892 
         -50      46.8549 -5.00923e-07 -3.52416e-07      1.22855 
         -50       47.276 -4.95765e-07  -3.5234e-07      1.22818 
         -50       47.699 -4.90684e-07 -3.53356e-07       1.2278 
         -50      48.1241 -4.86084e-07 -3.54845e-07      1.22743 
         -50      48.5508 -4.82295e-07 -3.56201e-07      1.22705 
         -50      48.9795 -4.79509e-07  -3.5687e-07      1.22668 
         -50        49.41 -4.77725e-07 -3.56411e-07       1.2263 
         -50      49.8426 -4.76697e-07 -3.54602e-07      1.22592 
         -50      50.2769 -4.75885e-07 -3.51593e-07      1.22554 
         -50      50.7131 -4.74412e-07 -3.48097e-07      1.22516 
         -50      51.1512 -4.71026e-07 -3.45637e-07      1.22478 
         -50      51.5914 -4.64069e-07  -3.4685e-07       1.2244 
         -50      52.0332  -4.5853e-07 -3.43802e-07      1.22402 
         -50      52.4769 -4.54179e-07 -3.39573e-07      1.22364 
         -50      52.9225 -4.50278e-07 -3.36604e-07      1.22325 
         -50      53.3702  -4.4714e-07 -3.34649e-07      1.22287 
         -50      53.8196 -4.44765e-07 -3.33442e-07      1.22248 
         -50      54.2709 -4.42925e-07 -3.32709e-07       1.2221 
         -50      54.7242 -4.41252e-07 -3.32178e-07      1.22171 
         -50      55.1792 -4.39327e-07 -3.31596e-07      1.22133 
         -50      55.6362 -4.36759e-07 -3.30744e-07      1.22094 
         -50       56.095 -4.33259e-07 -3.29457e-07      1.22056 
         -50      56.5558 -4.28715e-07 -3.27652e-07      1.22017 
         -50      57.0184 -4.23261e-07 -3.25353e-07      1.21978 
         -50      57.4829 -4.17329e-07 -3.22722e-07      1.21939 
         -50      57.9492 -4.11707e-07 -3.20098e-07      1.21901 
         -50      58.4176  -4.0758e-07 -3.18035e-07      1.21862 
         -50      58.8877 -4.06573e-07  -3.1735e-07      1.21823 
         -50      59.3597 -4.10766e-07 -3.19169e-07      1.21784 
         -50      59.8336 -4.08134e-07 -3.17189e-07      1.21746 
         -50      60.3096 -4.03488e-07 -3.15333e-07      1.21707 
         -50      60.7872 -3.99445e-07 -3.14704e-07      1.21668 
         -50      61.2667 -3.95568e-07 -3.14413e-07      1.21629 
         -50      61.7484 -3.91885e-07 -3.13765e-07      1.21591 
         -50      62.2317 -3.88766e-07 -3.12311e-07      1.21552 
         -50      62.7168 -3.86764e-07 -3.09888e-07      1.21513 
         -50      63.2039  -3.8645e-07 -3.06661e-07      1.21475 
         -50      63.6931 -3.84998e-07 -3.02483e-07      1.21436 
         -50      64.1839 -3.81269e-07 -2.99545e-07      1.21397 
         -50      64.6766 -3.77578e-07 -2.98021e-07      1.21359 
         -50      65.1712 -3.73852e-07 -2.97064e-07      1.21321 
         -50      65.6679 -3.70101e-07 -2.96133e-07      1.21282 
         -50      66.1663 -3.66404e-07 -2.94948e-07      1.21244 
         -50      66.6665 -3.62878e-07 -2.93437e-07      1.21205 
         -50      67.1687 -3.59661e-07 -2.91685e-07      1.21167 
         -50      67.6729 -3.56891e-07 -2.89882e-07      1.21129 
         -50      68.1788 -3.54683e-07 -2.88271e-07      1.21091 
         -50      68.6866 -3.53098e-07 -2.87096e-07      1.21053 
         -50      69.1963  -3.5213e-07 -2.86546e-07      1.21015 
         -50      69.7081 -3.51672e-07 -2.86705e-07      1.20977 
         -50      70.2215   -3.515e-07 -2.87496e-07      1.20939 
         -50      70.7368 -3.51239e-07 -2.88633e-07      1.20902 
         -50      71.2543 -3.50344e-07 -2.89559e-07      1.20864 
         -50      71.7734 -3.48071e-07 -2.89405e-07      1.20827 
         -50      72.2943 -3.43452e-07  -2.8693e-07      1.20789 
         -50      72.8172 -3.35268e-07 -2.80475e-07      1.20752 
         -50      73.3422 -3.22649e-07 -2.68644e-07      1.20715 
         -50      73.8688 -3.21385e-07 -2.71592e-07      1.20678 
         -50      74.3973 -3.21404e-07 -2.75153e-07      1.20641 
         -50      74.9277 -3.24272e-07 -2.75647e-07      1.20604 
         -50      75.4602 -3.29229e-07  -2.6785e-07      1.20567 
         -50      75.9944 -3.26639e-07 -2.61552e-07      1.20531 
         -50      76.5305 -3.21486e-07  -2.5927e-07      1.20494 
         -50      77.0684  -3.1752e-07 -2.56024e-07      1.20458 
         -50      77.6084 -3.14366e-07 -2.52474e-07      1.20422 
         -50      78.1502 -3.11874e-07 -2.49148e-07      1.20386 
         -50      78.6937 -3.10115e-07 -2.46462e-07       1.2035 
         -50      79.2394 -3.09381e-07 -2.44752e-07      1.20314 
         -50      79.7868 -3.08386e-07   -2.444e-07      1.20278 
         -50      80.3361 -3.02209e-07 -2.44445e-07      1.20243 
         -50      80.8872 -2.97142e-07 -2.43834e-07      1.20208 
         -50      81.4404  -2.9316e-07 -2.42739e-07      1.20173 
         -50      81.9953 -2.90228e-07 -2.41263e-07      1.20138 
         -50      82.5521  -2.8828e-07 -2.39473e-07      1.20103 
         -50      83.1108 -2.87212e-07  -2.3741e-07      1.20068 
         -50      83.6715  -2.8688e-07 -2.35113e-07      1.20034 
         -50       84.234 -2.87094e-07 -2.32629e-07          1.2 
         -50      84.7983 -2.87623e-07 -2.30018e-07      1.19966 
         -50      85.3645 -2.88207e-07 -2.27354e-07      1.19932 
         -50      85.9328  -2.8857e-07 -2.24727e-07      1.19898 
         -50      86.5028 -2.88444e-07  -2.2223e-07      1.19865 
         -50      87.0747 -2.87597e-07 -2.19943e-07      1.19831 
         -50      87.6486 -2.85866e-07 -2.17912e-07      1.19798 
         -50      88.2243 -2.83207e-07 -2.16123e-07      1.19765 
         -50      88.8018  -2.7974e-07 -2.14462e-07      1.19733 
         -50      89.3812 -2.75808e-07 -2.12671e-07        1.197 
         -50      89.9627 -2.72051e-07 -2.10295e-07      1.19668 
         -50      90.5458 -2.69485e-07 -2.06628e-07      1.19636 
         -50      91.1309 -2.69157e-07 -2.02354e-07      1.19604 
         -50      91.7178 -2.68404e-07 -2.02727e-07      1.19572 
         -50      92.3069 -2.67225e-07 -2.01457e-07      1.19541 
         -50      92.8976 -2.65525e-07 -1.99229e-07       1.1951 
         -50      93.4901 -2.63319e-07 -1.96609e-07      1.19479 
         -50      94.0846 -2.60722e-07 -1.94025e-07      1.19448 
         -50      94.6812 -2.57943e-07 -1.91753e-07      1.19418 
         -50      95.2794 -2.55274e-07 -1.89905e-07      1.19387 
         -50      95.8796 -2.53073e-07 -1.88413e-07      1.19357 
         -50      96.4818 -2.51742e-07 -1.87018e-07      1.19328 
         -50      97.0857 -2.51714e-07 -1.85265e-07      1.19298 
         -50      97.6915 -2.53419e-07 -1.82486e-07      1.19269 
         -50      98.2991 -2.54166e-07 -1.78876e-07       1.1924 
         -50      98.9089  -2.4901e-07 -1.76839e-07      1.19211 
         -50      99.5203  -2.4521e-07 -1.74522e-07      1.19183 
         -50      100.134 -2.42454e-07 -1.72029e-07      1.19155 
         -50      100.749 -2.40474e-07 -1.69444e-07      1.19127 
         -50      101.366 -2.39045e-07 -1.66825e-07      1.19099 
         -50      101.985 -2.37977e-07 -1.64211e-07      1.19072 
         -50      102.606 -2.37118e-07 -1.61624e-07      1.19044 
         -50      103.229 -2.36348e-07 -1.59071e-07      1.19018 
         -50      103.854 -2.35578e-07 -1.56549e-07      1.18991 
         -50       104.48 -2.34751e-07 -1.54049e-07      1.18965 
         -50      105.108 -2.33836e-07 -1.51561e-07      1.18939 
         -50      105.739 -2.32828e-07 -1.49076e-07      1.18913 
         -50      106.371 -2.31746e-07 -1.46594e-07      1.18887 
         -50      107.005 -2.30636e-07 -1.44129e-07      1.18862 
         -50      107.641 -2.29562e-07 -1.41713e-07      1.18837 
         -50      108.279 -2.28614e-07 -1.39406e-07      1.18813 
         -50      108.919   -2.279e-07 -1.37301e-07      1.18789 
         -50       109.56  -2.2755e-07 -1.35529e-07      1.18765 
         -50      110.204 -2.27717e-07 -1.34273e-07      1.18741 
         -50      110.849 -2.28573e-07 -1.33769e-07      1.18718 
         -50      111.497 -2.30312e-07 -1.34321e-07      1.18695 
         -50      112.146 -2.30424e-07 -1.30971e-07      1.18672 
         -50      112.797 -2.27921e-07 -1.24552e-07       1.1865 
         -50       113.45 -2.25521e-07 -1.20454e-07      1.18628 
         -50      114.105 -2.23361e-07 -1.17954e-07      1.18606 
         -50      114.761  -2.2155e-07 -1.16391e-07      1.18584 
         -50       115.42 -2.20181e-07 -1.15197e-07      1.18563 
         -50      116.081 -2.19324e-07   -1.139e-07      1.18543 
         -50      116.743 -2.19017e-07  -1.1215e-07      1.18522 
         -50      117.407 -2.19257e-07 -1.09727e-07      1.18502 
         -50      118.073 -2.19976e-07 -1.06557e-07      1.18483 
         -50      118.741 -2.21023e-07 -1.02734e-07      1.18463 
         -50      119.411 -2.22124e-07 -9.85265e-08      1.18445 
         -50      120.083 -2.22856e-07 -9.43958e-08      1.18426 
         -50      120.757 -2.22594e-07 -9.10105e-08      1.18408 
         -50      121.432 -2.20462e-07 -8.92649e-08       1.1839 
         -50       122.11 -2.15275e-07 -9.02852e-08      1.18372 
         -50      122.789 -2.05472e-07 -9.54485e-08      1.18355 
         -50       123.47 -2.08776e-07  -8.8204e-08      1.18338 
         -50      124.153 -2.10095e-07 -8.24511e-08      1.18322 
         -50      124.838 -2.09975e-07 -7.79839e-08      1.18306 
         -50      125.525 -2.08901e-07  -7.4551e-08       1.1829 
         -50      126.214 -2.07242e-07 -7.19112e-08      1.18275 
         -50      126.905 -2.05281e-07 -6.98393e-08       1.1826 
         -50      127.597 -2.03219e-07 -6.81219e-08      1.18246 
         -50      128.292 -2.01199e-07 -6.65634e-08      1.18232 
         -50      128.988 -1.99323e-07   -6.499e-08      1.18218 
         -50      129.686 -1.97663e-07 -6.32481e-08      1.18205 
         -50      130.386 -1.96281e-07 -6.12099e-08      1.18192 
         -50      131.088 -1.95242e-07 -5.87741e-08      1.18179 
         -50      131.792 -1.94632e-07  -5.5873e-08      1.18167 
         -50      132.497 -1.94571e-07 -5.24698e-08      1.18155 
         -50      133.205 -1.95226e-07 -4.85657e-08      1.18143 
         -50      133.915  -1.9683e-07 -4.42003e-08      1.18131 
         -50      134.626 -1.99898e-07 -4.07278e-08      1.18121 
         -50      135.339 -2.05207e-07 -3.97776e-08       1.1811 
         -50      136.054 -2.11227e-07 -3.81317e-08      1.18101 
         -50      136.771 -2.16596e-07   -3.602e-08      1.18091 
         -50       137.49 -2.20224e-07 -3.36342e-08      1.18082 
         -50      138.211 -2.21405e-07 -3.11205e-08      1.18073 
         -50      138.934  -2.1988e-07 -2.85812e-08      1.18065 
         -50      139.658 -2.15858e-07 -2.60799e-08      1.18057 
         -50      140.385 -2.09997e-07 -2.36382e-08      1.18049 
         -50      141.113 -2.03333e-07 -2.12457e-08      1.18043 
         -50      141.843 -1.97164e-07 -1.88653e-08      1.18036 
         -50      142.575 -1.92891e-07 -1.64471e-08       1.1803 
         -50      143.309 -1.91775e-07 -1.39348e-08      1.18025 
         -50      144.045 -1.94673e-07 -1.12844e-08       1.1802 
         -50      144.783 -2.01695e-07 -8.47975e-09      1.18015 
         -50      145.523 -2.11788e-07 -5.55657e-09      1.18011 
         -50      146.264 -2.22287e-07 -2.61941e-09      1.18008 
         -50      147.007 -2.28364e-07   1.2825e-10      1.18005 
         -50      147.753 -2.22418e-07  2.35662e-09      1.18002 
         -50        148.5 -1.93403e-07  3.57376e-09         1.18 
         -50      149.249 -1.26059e-07  3.09545e-09      1.17999 
         -50          150 -1.12988e-21   3.2993e-23      1.17998 
         -25            0           -0           -0      1.20911 
         -25     0.000942 -1.46714e-07  1.90766e-11      1.20911 
         -25     0.003768   -4.626e-07  6.51791e-11      1.20911 
         -25     0.008478 -6.96947e-07  1.18243e-10      1.20911 
         -25     0.015075 -7.20362e-07  1.77157e-10      1.20911 
         -25     0.023553 -6.41968e-07  2.75599e-10      1.20911 
         -25     0.033916 -6.43401e-07  4.69164e-10      1.20911 
         -25     0.046163 -7.07537e-07  8.07529e-10      1.20911 
         -25       0.0603 -6.91015e-07  1.33055e-09      1.20911 
         -25     0.076315 -7.43752e-07  2.07429e-09      1.20911 
         -25     0.094215  -7.5375e-07   3.0275e-09      1.20911 
         -25     0.113999 -7.85737e-07  4.24061e-09      1.20911 
         -25     0.135675 -8.16774e-07  5.69928e-09      1.20911 
         -25     0.159228 -8.51115e-07  7.39101e-09      1.20911 
         -25     0.184664 -8.86013e-07  9.28914e-09      1.20911 
         -25     0.211985 -9.19664e-07  1.13614e-08      1.20911 
         -25     0.241201 -9.53654e-07  1.35713e-08      1.20911 
         -25      0.27229 -9.83947e-07  1.58698e-08      1.20911 
         -25     0.305263 -1.01171e-06  1.82731e-08      1.20911 
         -25     0.340135 -1.03592e-06  2.07935e-08      1.20911 
         -25     0.376877 -1.05649e-06  2.34091e-08      1.20911 
         -25     0.415503 -1.07334e-06  2.60674e-08      1.20911 
         -25     0.456013 -1.08644e-06  2.86876e-08      1.20911 
         -25     0.498424  -1.0958e-06   3.1184e-08      1.20911 
         -25     0.542703 -1.10148e-06  3.35028e-08      1.20911 
         -25     0.588866 -1.10351e-06   3.5698e-08      1.20911 
         -25     0.636912 -1.10192e-06  3.82324e-08      1.20911 
         -25     0.686864 -1.09683e-06  4.09429e-08      1.20911 
         -25     0.738679 -1.08835e-06  4.35298e-08      1.20911 
         -25     0.792379 -1.07677e-06  4.59434e-08      1.20911 
         -25     0.847962 -1.06242e-06  4.81579e-08       1.2091 
         -25     0.905453 -1.04569e-06  5.01707e-08       1.2091 
         -25     0.964806 -1.02695e-06  5.19926e-08       1.2091 
         -25      1.02604 -1.00657e-06  5.36441e-08       1.2091 
         -25      1.08919 -9.84858e-07  5.51429e-08       1.2091 
         -25      1.15419 -9.62109e-07   5.6492e-08       1.2091 
         -25      1.22108 -9.38515e-07  5.76767e-08       1.2091 
         -25      1.28985  -9.1422e-07  5.86596e-08       1.2091 
         -25      1.36054 -8.89326e-07  5.93904e-08       1.2091 
         -25      1.43308 -8.63992e-07   5.9828e-08      1.20909 
         -25      1.50751 -8.38479e-07  5.99864e-08      1.20909 
         -25      1.58382 -8.11305e-07  5.98357e-08      1.20909 
         -25      1.66204 -7.81818e-07  5.95946e-08      1.20909 
         -25      1.74212   -7.525e-07  5.91547e-08      1.20909 
         -25      1.82409 -7.25295e-07  5.84229e-08      1.20908 
         -25      1.90793 -7.01625e-07  5.73249e-08      1.20908 
         -25       1.9937 -6.82372e-07  5.58063e-08      1.20908 
         -25      2.08131 -6.67927e-07  5.38371e-08      1.20908 
         -25      2.17081 -6.58186e-07  5.14095e-08      1.20907 
         -25      2.26223 -6.52649e-07  4.85392e-08      1.20907 
         -25       2.3555 -6.50504e-07  4.52692e-08      1.20907 
         -25      2.45065 -6.50719e-07  4.16622e-08      1.20906 
         -25      2.54769 -6.52175e-07  3.78021e-08      1.20906 