Variables = x, y, u, v, p

Zone, I=2080, F=POINT
         -50            0            0            0     -107.903 
         -50      0.00048 -3.85113e-05 -3.89795e-09     -107.903 
         -50     0.001922 -0.000135869 -1.50838e-08     -107.903 
         -50     0.004326 -0.000246916 -3.21614e-08     -107.903 
         -50      0.00769 -0.000324276 -5.33073e-08     -107.903 
         -50     0.012017 -0.000344648 -7.68424e-08     -107.903 
         -50     0.017304 -0.000320874 -1.01517e-07     -107.903 
         -50     0.023553 -0.000291111 -1.26577e-07     -107.903 
         -50     0.030763 -0.000288447  -1.5139e-07     -107.903 
         -50     0.038936 -0.000311193 -1.75042e-07     -107.903 
         -50     0.048069 -0.000323481 -1.96165e-07     -107.903 
         -50     0.058163 -0.000303494 -2.13319e-07     -107.903 
         -50     0.069219 -0.000299308 -2.25256e-07     -107.903 
         -50     0.081236 -0.000319667 -2.28688e-07     -107.903 
         -50     0.094215 -0.000310286 -2.22829e-07     -107.903 
         -50     0.108155 -0.000313962 -2.06843e-07     -107.903 
         -50     0.123056 -0.000314136 -1.78761e-07     -107.903 
         -50     0.138918 -0.000315192 -1.36868e-07     -107.903 
         -50     0.155744 -0.000317857 -7.91026e-08     -107.903 
         -50     0.173529 -0.000320663 -3.65338e-09     -107.903 
         -50     0.192276 -0.000322328  9.04748e-08     -107.903 
         -50     0.211984  -0.00032373  2.03208e-07     -107.903 
         -50     0.232655 -0.000326872  3.34431e-07     -107.903 
         -50     0.254285 -0.000328295  4.84582e-07     -107.903 
         -50     0.276877 -0.000330762  6.33674e-07     -107.902 
         -50     0.300431 -0.000332861   7.9803e-07     -107.902 
         -50     0.324946 -0.000334757  9.80235e-07     -107.902 
         -50     0.350424 -0.000336534  1.16291e-06     -107.902 
         -50     0.376861 -0.000338208  1.31651e-06     -107.902 
         -50      0.40426 -0.000339749  1.41043e-06     -107.902 
         -50     0.432621   -0.0003411   1.4254e-06     -107.902 
         -50     0.461945 -0.000342216  1.36509e-06     -107.902 
         -50     0.492228 -0.000343087  1.26245e-06     -107.902 
         -50     0.523472 -0.000343745  1.17524e-06     -107.902 
         -50     0.555678 -0.000344237  1.16279e-06     -107.902 
         -50     0.588845 -0.000344534  1.23343e-06     -107.902 
         -50     0.622976 -0.000344563  1.53391e-06     -107.902 
         -50     0.658066 -0.000344473  2.10613e-06     -107.902 
         -50     0.694117 -0.000344145  2.56231e-06     -107.902 
         -50      0.73113 -0.000343623   2.9059e-06     -107.902 
         -50     0.769107 -0.000342948  3.14685e-06     -107.902 
         -50     0.808042 -0.000342157  3.30061e-06     -107.901 
         -50     0.847939 -0.000341279  3.38697e-06     -107.901 
         -50     0.888797 -0.000340339  3.42827e-06     -107.901 
         -50      0.93062 -0.000339354  3.44744e-06     -107.901 
         -50       0.9734 -0.000338333  3.46575e-06     -107.901 
         -50      1.01714 -0.000337278  3.50055e-06     -107.901 
         -50      1.06185 -0.000336186  3.56299e-06     -107.901 
         -50      1.10751 -0.000335047  3.65615e-06       -107.9 
         -50      1.15414 -0.000333848  3.77377e-06       -107.9 
         -50      1.20173 -0.000332575  3.89993e-06       -107.9 
         -50      1.25028 -0.000331215  4.01033e-06       -107.9 
         -50      1.29979  -0.00032976  4.07542e-06       -107.9 
         -50      1.35026  -0.00032821  4.06629e-06     -107.899 
         -50       1.4017  -0.00032658    3.964e-06     -107.899 
         -50      1.45409 -0.000324904  3.77326e-06     -107.899 
         -50      1.50745 -0.000323223   3.5554e-06     -107.899 
         -50      1.56176 -0.000320827  3.84916e-06     -107.898 
         -50      1.61705 -0.000318778  3.81929e-06     -107.898 
         -50      1.67329 -0.000316975  3.57817e-06     -107.898 
         -50      1.73049 -0.000315337  3.21935e-06     -107.897 
         -50      1.78865 -0.000313798  2.81677e-06     -107.897 
         -50      1.84778 -0.000312314  2.42452e-06     -107.897 
         -50      1.90786 -0.000310861  2.07721e-06     -107.896 
         -50      1.96891 -0.000309428  1.79041e-06     -107.896 
         -50      2.03092 -0.000308025  1.56194e-06     -107.895 
         -50      2.09389 -0.000306672  1.37349e-06     -107.895 
         -50      2.15782 -0.000305404  1.19279e-06     -107.895 
         -50      2.22272 -0.000304262  9.76017e-07     -107.894 
         -50      2.28857 -0.000303294  6.70956e-07     -107.894 
         -50      2.35539 -0.000302549  2.20222e-07     -107.893 
         -50      2.42317 -0.000302075 -4.35096e-07     -107.892 
         -50      2.49191 -0.000301912 -1.35137e-06     -107.892 
         -50      2.56161 -0.000302093 -2.57873e-06     -107.891 
         -50      2.63226 -0.000302633 -4.15698e-06     -107.891 
         -50      2.70389 -0.000303533 -6.11201e-06      -107.89 
         -50      2.77648 -0.000304772 -8.45162e-06     -107.889 
         -50      2.85002 -0.000306307 -1.11637e-05     -107.889 
         -50      2.92453 -0.000308071 -1.42135e-05     -107.888 
         -50            3 -0.000309973 -1.75431e-05     -107.887 
         -25            0           -0           -0     -103.595 
         -25      0.00048 -2.82346e-05 -1.37618e-09     -103.595 
         -25     0.001922 -9.96059e-05 -5.44864e-09     -103.595 
         -25     0.004326 -0.000180987 -1.20964e-08     -103.595 
         -25      0.00769 -0.000237617 -2.12978e-08     -103.595 
         -25     0.012017 -0.000252379 -3.33326e-08     -103.595 
         -25     0.017304 -0.000234653 -4.88605e-08     -103.595 
         -25     0.023553 -0.000212378 -6.89193e-08     -103.595 
         -25     0.030763 -0.000209776 -9.47348e-08     -103.595 
         -25     0.038936  -0.00022557 -1.27533e-07     -103.595 
         -25     0.048069 -0.000233425 -1.68405e-07     -103.595 
         -25     0.058163 -0.000217319 -2.18432e-07     -103.595 
         -25     0.069219 -0.000212486 -2.78712e-07     -103.595 
         -25     0.081236 -0.000225332 -3.49397e-07     -103.595 
         -25     0.094215 -0.000216057 -4.31536e-07     -103.595 
         -25     0.108155 -0.000216059 -5.25947e-07     -103.595 
         -25     0.123056 -0.000213224 -6.32585e-07     -103.595 
         -25     0.138918 -0.000210805 -7.51564e-07     -103.595 
         -25     0.155744  -0.00020938 -8.82802e-07     -103.595 
         -25     0.173529 -0.000207922 -1.02589e-06     -103.595 
         -25     0.192276 -0.000205546  -1.1802e-06     -103.595 
         -25     0.211984 -0.000202948 -1.34476e-06     -103.595 
         -25     0.232655 -0.000201651 -1.51846e-06     -103.595 
         -25     0.254285 -0.000199166 -1.69994e-06     -103.595 
         -25     0.276877 -0.000197567 -1.88659e-06     -103.595 
         -25     0.300431 -0.000195856 -2.07741e-06     -103.595 
         -25     0.324946 -0.000194181 -2.27058e-06     -103.595 
         -25     0.350424 -0.000192632 -2.46433e-06     -103.595 
         -25     0.376861 -0.000191249 -2.65726e-06     -103.595 
         -25      0.40426 -0.000190031 -2.84891e-06     -103.595 
         -25     0.432621  -0.00018896    -3.04e-06     -103.595 
         -25     0.461945 -0.000188016 -3.23263e-06     -103.595 
         -25     0.492228 -0.000187199 -3.42991e-06     -103.595 
         -25     0.523472 -0.000186535 -3.63503e-06     -103.595 
         -25     0.555678 -0.000186059 -3.84913e-06     -103.595 
         -25     0.588845  -0.00018576 -4.06757e-06     -103.595 
         -25     0.622976 -0.000185563 -4.28945e-06     -103.595 
         -25     0.658066 -0.000185576 -4.53091e-06     -103.595 
         -25     0.694117 -0.000185765 -4.77515e-06     -103.595 
         -25      0.73113 -0.000186133  -5.0177e-06     -103.595 
         -25     0.769107 -0.000186679 -5.25548e-06     -103.594 
         -25     0.808042 -0.000187403 -5.48669e-06     -103.594 
         -25     0.847939   -0.0001883 -5.71079e-06     -103.594 
         -25     0.888797 -0.000189365 -5.92819e-06     -103.594 
         -25      0.93062 -0.000190591 -6.14004e-06     -103.594 
         -25       0.9734 -0.000191969 -6.34784e-06     -103.594 
         -25      1.01714 -0.000193488 -6.55317e-06     -103.594 
         -25      1.06185 -0.000195135 -6.75729e-06     -103.594 
         -25      1.10751 -0.000196897 -6.96083e-06     -103.594 
         -25      1.15414 -0.000198758 -7.16366e-06     -103.594 
         -25      1.20173 -0.000200703 -7.36483e-06     -103.594 
         -25      1.25028 -0.000202715 -7.56286e-06     -103.594 
         -25      1.29979  -0.00020478 -7.75642e-06     -103.594 
         -25      1.35026 -0.000206883 -7.94551e-06     -103.594 
         -25       1.4017  -0.00020901  -8.1332e-06     -103.594 
         -25      1.45409 -0.000211155 -8.32847e-06     -103.593 
         -25      1.50745 -0.000213308 -8.54246e-06     -103.593 
         -25      1.56176 -0.000215273 -8.48496e-06     -103.593 
         -25      1.61705 -0.000217145  -8.5559e-06     -103.593 
         -25      1.67329  -0.00021893 -8.70473e-06     -103.593 
         -25      1.73049 -0.000220635  -8.8874e-06     -103.593 
         -25      1.78865 -0.000222259 -9.06686e-06     -103.593 
         -25      1.84778   -0.0002238 -9.21336e-06     -103.593 
         -25      1.90786 -0.000225252  -9.3046e-06     -103.592 
         -25      1.96891 -0.000226609 -9.32588e-06     -103.592 
         -25      2.03092  -0.00022786 -9.26988e-06     -103.592 
         -25      2.09389 -0.000228997 -9.13643e-06     -103.592 
         -25      2.15782 -0.000230012 -8.93206e-06     -103.592 
         -25      2.22272 -0.000230897 -8.66935e-06     -103.592 
         -25      2.28857 -0.000231646 -8.36622e-06     -103.591 
         -25      2.35539  -0.00023226 -8.04493e-06     -103.591 
         -25      2.42317 -0.000232741 -7.73103e-06     -103.591 
         -25      2.49191 -0.000233097 -7.45227e-06     -103.591 
         -25      2.56161 -0.000233343 -7.23714e-06     -103.591 
         -25      2.63226 -0.000233499 -7.11358e-06      -103.59 
         -25      2.70389 -0.000233591 -7.10756e-06      -103.59 
         -25      2.77648 -0.000233651  -7.2417e-06      -103.59 
         -25      2.85002 -0.000233715 -7.53385e-06      -103.59 
         -25      2.92453 -0.000233824 -7.99593e-06     -103.589 
         -25            3 -0.000234016 -8.63285e-06     -103.589 
           0            0            0            0     -100.004 
           0      0.00048 -0.000109515  7.05896e-05     -100.004 
           0     0.001922 -0.000379295  0.000243885     -100.005 
           0     0.004326 -0.000665161  0.000425509     -100.006 
           0      0.00769 -0.000821106  0.000519966     -100.007 
           0     0.012017 -0.000786137  0.000487727     -100.008 
           0     0.017304 -0.000620728  0.000369563     -100.009 
           0     0.023553 -0.000462981  0.000258203     -100.011 
           0     0.030763   -0.0004202  0.000227061     -100.012 
           0     0.038936 -0.000469222  0.000263276     -100.013 
           0     0.048069 -0.000471112  0.000274162     -100.015 
           0     0.058163 -0.000355828   0.00020572     -100.016 
           0     0.069219 -0.000317948  0.000176464     -100.018 
           0     0.081236 -0.000373814  0.000218024      -100.02 
           0     0.094215 -0.000307748  0.000177098     -100.021 
           0     0.108155  -0.00029628  0.000171682     -100.023 
           0     0.123056 -0.000273322  0.000161264     -100.024 
           0     0.138918 -0.000254623  0.000152051     -100.026 
           0     0.155744 -0.000242522  0.000145333     -100.028 
           0     0.173529 -0.000231529  0.000139371      -100.03 
           0     0.192276 -0.000217191  0.000132502     -100.031 
           0     0.211984 -0.000203218  0.000125753     -100.033 
           0     0.232655 -0.000196973  0.000121486     -100.035 
           0     0.254285  -0.00018544  0.000115372     -100.037 
           0     0.276877 -0.000177915  0.000110752     -100.038 
           0     0.300431 -0.000170629   0.00010619      -100.04 
           0     0.324946 -0.000163996  0.000101825     -100.042 
           0     0.350424 -0.000158054  9.76991e-05     -100.044 
           0     0.376861 -0.000152775  9.37949e-05     -100.045 
           0      0.40426 -0.000148065  9.00919e-05     -100.047 
           0     0.432621 -0.000143852  8.65922e-05     -100.049 
           0     0.461945 -0.000140144  8.32056e-05     -100.051 
           0     0.492228 -0.000136871  7.99986e-05     -100.053 
           0     0.523472 -0.000134021  7.69448e-05     -100.055 
           0     0.555678 -0.000131588  7.40233e-05     -100.056 
           0     0.588845 -0.000129564  7.12155e-05     -100.058 
           0     0.622976 -0.000127921  6.84992e-05      -100.06 
           0     0.658066 -0.000126651  6.59044e-05     -100.062 
           0     0.694117 -0.000125777  6.34004e-05     -100.064 
           0      0.73113 -0.000125305  6.10061e-05     -100.065 
           0     0.769107 -0.000125226  5.86994e-05     -100.067 
           0     0.808042 -0.000125513  5.64379e-05     -100.069 
           0     0.847939 -0.000126146  5.42406e-05     -100.071 
           0     0.888797 -0.000127123  5.22023e-05     -100.072 
           0      0.93062   -0.0001284  5.00956e-05     -100.074 
           0       0.9734 -0.000129988  4.81394e-05     -100.076 
           0      1.01714 -0.000131862   4.6275e-05     -100.078 
           0      1.06185 -0.000133963  4.44599e-05      -100.08 
           0      1.10751 -0.000136287   4.2687e-05     -100.081 
           0      1.15414 -0.000138828  4.09659e-05     -100.083 
           0      1.20173 -0.000141552  3.93061e-05     -100.085 
           0      1.25028 -0.000144441  3.77038e-05     -100.086 
           0      1.29979 -0.000147487   3.6154e-05     -100.088 
           0      1.35026 -0.000150693  3.46584e-05      -100.09 
           0       1.4017 -0.000154067   3.3227e-05     -100.092 
           0      1.45409 -0.000157613  3.18691e-05     -100.093 
           0      1.50745 -0.000161316  3.05708e-05     -100.095 
           0      1.56176 -0.000165125  2.92537e-05     -100.097 
           0      1.61705 -0.000169096  2.80166e-05     -100.098 
           0      1.67329 -0.000173236   2.6859e-05       -100.1 
           0      1.73049 -0.000177516  2.57937e-05     -100.101 
           0      1.78865   -0.0001819  2.46369e-05     -100.103 
           0      1.84778 -0.000186347  2.34283e-05     -100.105 
           0      1.90786 -0.000190816  2.24019e-05     -100.106 
           0      1.96891 -0.000195245  2.14989e-05     -100.108 
           0      2.03092 -0.000199569  2.06442e-05     -100.109 
           0      2.09389 -0.000203722  1.97772e-05     -100.111 
           0      2.15782 -0.000207642  1.88759e-05     -100.112 
           0      2.22272 -0.000211267  1.79676e-05     -100.114 
           0      2.28857 -0.000214545  1.71246e-05     -100.115 
           0      2.35539 -0.000217431   1.6436e-05     -100.117 
           0      2.42317 -0.000219901  1.59511e-05     -100.118 
           0      2.49191 -0.000221953   1.5586e-05      -100.12 
           0      2.56161 -0.000223624  1.49846e-05     -100.121 
           0      2.63226 -0.000224576  1.48922e-05     -100.123 
           0      2.70389  -0.00022499  1.48075e-05     -100.124 
           0      2.77648 -0.000224983   1.4743e-05     -100.125 
           0      2.85002 -0.000224638  1.49948e-05     -100.127 
           0      2.92453 -0.000223836  1.51206e-05     -100.128 
           0            3 -0.000222742  1.55067e-05     -100.129 
          20            0 -1.60821e-15 -2.47575e-15     -98.1281 
          20      0.00048 -0.000239071 -0.000178136     -98.1279 
          20     0.001922 -0.000854432    -0.000634     -98.1274 
          20     0.004326  -0.00159159  -0.00117197     -98.1265 
          20      0.00769  -0.00217927  -0.00158545     -98.1255 
          20     0.012017  -0.00247395  -0.00176952     -98.1243 
          20     0.017304  -0.00252564  -0.00177188     -98.1231 
          20     0.023553  -0.00251993  -0.00174596     -98.1219 
          20     0.030763  -0.00261399  -0.00181996     -98.1207 
          20     0.038936  -0.00278007  -0.00197022     -98.1194 
          20     0.048069  -0.00281794  -0.00202698      -98.118 
          20     0.058163   -0.0026273  -0.00188946     -98.1166 
          20     0.069219  -0.00250643  -0.00178096     -98.1152 
          20     0.081236  -0.00249924  -0.00180683     -98.1137 
          20     0.094215  -0.00228161  -0.00164716     -98.1122 
          20     0.108155  -0.00213902  -0.00155356     -98.1107 
          20     0.123056  -0.00197631  -0.00145762     -98.1091 
          20     0.138918  -0.00181905  -0.00136415     -98.1076 
          20     0.155744  -0.00167453  -0.00127641      -98.106 
          20     0.173529  -0.00153798  -0.00119602     -98.1044 
          20     0.192276   -0.0014035   -0.0011231     -98.1028 
          20     0.211984  -0.00127392  -0.00105677     -98.1011 
          20     0.232655   -0.0011578 -0.000995082     -98.0995 
          20     0.254285  -0.00104448  -0.00093825     -98.0978 
          20     0.276877 -0.000938786  -0.00088636     -98.0962 
          20     0.300431 -0.000840266 -0.000839117     -98.0945 
          20     0.324946 -0.000748731 -0.000796217     -98.0928 
          20     0.350424 -0.000664309 -0.000757369     -98.0911 
          20     0.376861 -0.000587099 -0.000722316     -98.0894 
          20      0.40426 -0.000517139 -0.000690843     -98.0877 
          20     0.432621 -0.000454429 -0.000662747      -98.086 
          20     0.461945 -0.000398907 -0.000637827     -98.0843 
          20     0.492228 -0.000350434 -0.000615889     -98.0825 
          20     0.523472 -0.000308762 -0.000596735     -98.0808 
          20     0.555678  -0.00027354 -0.000580164     -98.0791 
          20     0.588845  -0.00024431 -0.000565975     -98.0774 
          20     0.622976 -0.000220504 -0.000553964     -98.0756 
          20     0.658066 -0.000201473 -0.000543929     -98.0739 
          20     0.694117  -0.00018649 -0.000535664     -98.0722 
          20      0.73113 -0.000174805 -0.000528967     -98.0705 
          20     0.769107 -0.000165668 -0.000523644     -98.0688 
          20     0.808042 -0.000158371  -0.00051951      -98.067 
          20     0.847939 -0.000152276 -0.000516386     -98.0653 
          20     0.888797 -0.000146846 -0.000514111     -98.0636 
          20      0.93062 -0.000141661 -0.000512534     -98.0619 
          20       0.9734 -0.000136412 -0.000511525     -98.0602 
          20      1.01714 -0.000130904  -0.00051096     -98.0585 
          20      1.06185 -0.000125036 -0.000510731     -98.0568 
          20      1.10751 -0.000118781 -0.000510745     -98.0551 
          20      1.15414 -0.000112166 -0.000510913     -98.0534 
          20      1.20173  -0.00010525 -0.000511158     -98.0517 
          20      1.25028 -9.81056e-05 -0.000511408       -98.05 
          20      1.29979 -9.08168e-05 -0.000511591     -98.0483 
          20      1.35026 -8.34622e-05 -0.000511649     -98.0466 
          20       1.4017 -7.61325e-05 -0.000511525     -98.0449 
          20      1.45409 -6.89201e-05 -0.000511147     -98.0433 
          20      1.50745   -6.189e-05 -0.000510487     -98.0416 
          20      1.56176 -5.51334e-05 -0.000509486       -98.04 
          20      1.61705 -4.87241e-05 -0.000508104     -98.0383 
          20      1.67329 -4.27166e-05   -0.0005063     -98.0367 
          20      1.73049  -3.7145e-05 -0.000504048      -98.035 
          20      1.78865 -3.20385e-05 -0.000501331     -98.0334 
          20      1.84778 -2.74234e-05 -0.000498125     -98.0318 
          20      1.90786 -2.33136e-05 -0.000494405     -98.0301 
          20      1.96891 -1.96742e-05 -0.000490181     -98.0285 
          20      2.03092    -1.65e-05 -0.000485436     -98.0269 
          20      2.09389 -1.37775e-05 -0.000480205     -98.0253 
          20      2.15782 -1.15702e-05 -0.000474507     -98.0237 
          20      2.22272 -9.96795e-06 -0.000468372     -98.0221 
          20      2.28857 -9.08232e-06 -0.000461847     -98.0205 
          20      2.35539 -9.03927e-06 -0.000454992      -98.019 
          20      2.42317 -9.96267e-06  -0.00044788     -98.0174 
          20      2.49191 -1.19446e-05 -0.000440588     -98.0158 
          20      2.56161 -1.50178e-05 -0.000433105     -98.0143 
          20      2.63226 -1.90777e-05 -0.000425489     -98.0127 
          20      2.70389  -2.3933e-05 -0.000417753     -98.0112 
          20      2.77648 -2.94025e-05 -0.000409848     -98.0096 
          20      2.85002 -3.52559e-05 -0.000401755     -98.0081 
          20      2.92453 -4.12268e-05 -0.000393486     -98.0066 
          20            3 -4.71085e-05 -0.000385035     -98.0051 
          40            0 -4.79178e-19 -7.31842e-24     -95.7099 
          40      0.00048  -2.3971e-05 -4.28085e-10     -95.7099 
          40     0.001922 -8.60578e-05 -2.30664e-09     -95.7099 
          40     0.004326 -0.000161774 -7.49026e-09     -95.7099 
          40      0.00769 -0.000225277 -1.92968e-08     -95.7099 
          40     0.012017 -0.000263545 -4.28309e-08     -95.7099 
          40     0.017304 -0.000282799  -8.5265e-08     -95.7099 
          40     0.023553 -0.000302773 -1.56181e-07     -95.7099 
          40     0.030763 -0.000340372  -2.6771e-07     -95.7099 
          40     0.038936 -0.000393781 -4.34665e-07     -95.7099 
          40     0.048069 -0.000442766 -6.74322e-07     -95.7099 
          40     0.058163 -0.000474669 -1.00639e-06     -95.7099 
          40     0.069219 -0.000514396 -1.45261e-06     -95.7099 
          40     0.081236 -0.000565794 -2.03605e-06     -95.7099 
          40     0.094215 -0.000598969 -2.78074e-06     -95.7099 
          40     0.108155  -0.00063628 -3.71043e-06     -95.7099 
          40     0.123056 -0.000668361 -4.84889e-06     -95.7099 
          40     0.138918 -0.000697246 -6.21797e-06     -95.7099 
          40     0.155744 -0.000723168 -7.83742e-06     -95.7099 
          40     0.173529 -0.000745323 -9.72376e-06     -95.7099 
          40     0.192276 -0.000763159  -1.1892e-05     -95.7099 
          40     0.211984 -0.000777404 -1.43545e-05     -95.7099 
          40     0.232655  -0.00078949   -1.712e-05     -95.7099 
          40     0.254285 -0.000797987 -2.01897e-05     -95.7099 
          40     0.276877 -0.000804871  -2.3576e-05     -95.7099 
          40     0.300431 -0.000809894 -2.72787e-05     -95.7099 
          40     0.324946 -0.000813649 -3.12909e-05     -95.7099 
          40     0.350424 -0.000816676   -3.561e-05     -95.7099 
          40     0.376861 -0.000819446 -4.02343e-05     -95.7099 
          40      0.40426 -0.000822349 -4.51629e-05     -95.7099 
          40     0.432621 -0.000825685  -5.0391e-05     -95.7099 
          40     0.461945 -0.000829669 -5.59081e-05     -95.7099 
          40     0.492228  -0.00083443 -6.16959e-05     -95.7099 
          40     0.523472 -0.000840016 -6.77325e-05     -95.7099 
          40     0.555678 -0.000846369 -7.39989e-05     -95.7099 
          40     0.588845 -0.000853286 -8.04944e-05     -95.7099 
          40     0.622976 -0.000860429  -8.7239e-05     -95.7099 
          40     0.658066 -0.000867517  -9.4078e-05     -95.7098 
          40     0.694117  -0.00087401 -0.000100997     -95.7098 
          40      0.73113 -0.000879441 -0.000108009     -95.7098 
          40     0.769107 -0.000883359  -0.00011511     -95.7098 
          40     0.808042 -0.000885342 -0.000122277     -95.7098 
          40     0.847939 -0.000885007 -0.000129473     -95.7098 
          40     0.888797 -0.000882016 -0.000136651     -95.7098 
          40      0.93062 -0.000876084 -0.000143757     -95.7098 
          40       0.9734 -0.000866989 -0.000150737     -95.7098 
          40      1.01714 -0.000854574 -0.000157541     -95.7097 
          40      1.06185 -0.000838755  -0.00016413     -95.7097 
          40      1.10751 -0.000819522 -0.000170477     -95.7097 
          40      1.15414 -0.000796944 -0.000176569     -95.7097 
          40      1.20173 -0.000771176 -0.000182406     -95.7097 
          40      1.25028 -0.000742454 -0.000187992     -95.7096 
          40      1.29979 -0.000711097 -0.000193322     -95.7096 
          40      1.35026  -0.00067751 -0.000198358     -95.7096 
          40       1.4017 -0.000642197 -0.000202994     -95.7096 
          40      1.45409 -0.000605747  -0.00020701     -95.7095 
          40      1.50745  -0.00056883  -0.00021003     -95.7095 
          40      1.56176 -0.000530589 -0.000213656     -95.7095 
          40      1.61705 -0.000492127 -0.000216739     -95.7094 
          40      1.67329 -0.000453726 -0.000219291     -95.7094 
          40      1.73049 -0.000415648 -0.000221325     -95.7094 
          40      1.78865 -0.000378141 -0.000222856     -95.7093 
          40      1.84778 -0.000341435 -0.000223899     -95.7093 
          40      1.90786 -0.000305753  -0.00022447     -95.7093 
          40      1.96891 -0.000271287 -0.000224586     -95.7092 
          40      2.03092 -0.000238212 -0.000224264     -95.7092 
          40      2.09389 -0.000206681 -0.000223523     -95.7091 
          40      2.15782 -0.000176832 -0.000222383     -95.7091 
          40      2.22272 -0.000148772 -0.000220864      -95.709 
          40      2.28857 -0.000122591 -0.000218987      -95.709 
          40      2.35539  -9.8357e-05 -0.000216778     -95.7089 
          40      2.42317  -7.6116e-05 -0.000214259     -95.7088 
          40      2.49191 -5.58996e-05 -0.000211458     -95.7088 
          40      2.56161 -3.77154e-05 -0.000208402     -95.7087 
          40      2.63226 -2.15558e-05  -0.00020512     -95.7086 
          40      2.70389 -7.39547e-06 -0.000201643     -95.7086 
          40      2.77648  4.80144e-06 -0.000198004     -95.7085 
          40      2.85002  1.50887e-05 -0.000194236     -95.7084 
          40      2.92453  2.35318e-05 -0.000190372     -95.7084 
          40            3  3.02093e-05 -0.000186446     -95.7083 
          60            0 -1.91987e-19  -1.8141e-24     -93.5755 
          60      0.00048 -1.90812e-05  -1.1156e-10     -93.5755 
          60     0.001922 -6.70369e-05  4.74767e-10     -93.5755 
          60     0.004326 -0.000120817  4.51982e-09     -93.5755 
          60      0.00769 -0.000156307  1.65968e-08     -93.5755 
          60     0.012017 -0.000161797  4.30889e-08     -93.5755 
          60     0.017304 -0.000144176  9.21078e-08     -93.5755 
          60     0.023553 -0.000123355  1.73506e-07     -93.5755 
          60     0.030763 -0.000116679  2.98737e-07     -93.5755 
          60     0.038936 -0.000123666  4.80797e-07     -93.5755 
          60     0.048069 -0.000126304  7.33823e-07     -93.5755 
          60     0.058163 -0.000113763  1.07294e-06     -93.5755 
          60     0.069219 -0.000111029  1.51379e-06     -93.5755 
          60     0.081236 -0.000122857  2.07207e-06     -93.5755 
          60     0.094215 -0.000121606  2.76292e-06     -93.5755 
          60     0.108155  -0.00012935  3.60032e-06     -93.5755 
          60     0.123056 -0.000137632  4.59677e-06     -93.5755 
          60     0.138918 -0.000148648  5.76262e-06     -93.5755 
          60     0.155744 -0.000162633  7.10595e-06     -93.5755 
          60     0.173529 -0.000178611  8.63136e-06     -93.5754 
          60     0.192276 -0.000195637  1.03412e-05     -93.5754 
          60     0.211984 -0.000213818  1.22345e-05     -93.5754 
          60     0.232655 -0.000233804  1.43079e-05     -93.5754 
          60     0.254285 -0.000253416  1.65548e-05     -93.5754 
          60     0.276877 -0.000273669  1.89677e-05     -93.5754 
          60     0.300431 -0.000293445   2.1537e-05     -93.5754 
          60     0.324946 -0.000312457  2.42519e-05     -93.5754 
          60     0.350424 -0.000330417  2.71016e-05     -93.5754 
          60     0.376861 -0.000347032  3.00749e-05     -93.5754 
          60      0.40426 -0.000362038  3.31618e-05     -93.5754 
          60     0.432621 -0.000375207  3.63523e-05     -93.5754 
          60     0.461945  -0.00038636  3.96371e-05     -93.5754 
          60     0.492228 -0.000395383  4.30066e-05     -93.5754 
          60     0.523472 -0.000402228  4.64518e-05     -93.5754 
          60     0.555678 -0.000406903  4.99642e-05     -93.5754 
          60     0.588845 -0.000409439  5.35351e-05     -93.5754 
          60     0.622976 -0.000409933  5.71534e-05     -93.5754 
          60     0.658066 -0.000408514   6.0809e-05     -93.5754 
          60     0.694117 -0.000405335  6.44925e-05     -93.5754 
          60      0.73113 -0.000400712   6.8188e-05     -93.5754 
          60     0.769107 -0.000394938  7.18812e-05     -93.5754 
          60     0.808042 -0.000388282  7.55589e-05     -93.5754 
          60     0.847939 -0.000380978  7.92106e-05     -93.5754 
          60     0.888797 -0.000373226  8.28271e-05     -93.5754 
          60      0.93062 -0.000365185  8.64011e-05     -93.5754 
          60       0.9734 -0.000356978  8.99257e-05     -93.5754 
          60      1.01714 -0.000348687   9.3396e-05     -93.5754 
          60      1.06185 -0.000340362   9.6807e-05     -93.5754 
          60      1.10751 -0.000332023  0.000100154     -93.5753 
          60      1.15414 -0.000323667  0.000103432     -93.5753 
          60      1.20173  -0.00031528  0.000106633     -93.5753 
          60      1.25028 -0.000306839  0.000109751     -93.5753 
          60      1.29979 -0.000298328  0.000112775     -93.5753 