Variables = x, y, u, v, p

Zone, I=416, F=POINT
         -50            0  1.40389e-19 -5.12599e-25     -17.2984 
         -50     0.013333  0.000122207  4.56245e-09     -17.2984 
         -50     0.053333  0.000116609  6.11346e-09     -17.2984 
         -50         0.12   0.00011978 -8.53175e-08     -17.2984 
         -50     0.213332  0.000121605 -1.29506e-07     -17.2984 
         -50     0.333332  0.000119721  2.81149e-08     -17.2984 
         -50         0.48  0.000114861 -6.54969e-07     -17.2984 
         -50     0.653331  0.000109217  6.46236e-07     -17.2983 
         -50     0.853332  0.000105023  1.01395e-06     -17.2982 
         -50         1.08  0.000101903     1.04e-06     -17.2981 
         -50      1.33333  0.000100355  2.26528e-06     -17.2979 
         -50      1.61333  0.000102094  2.99916e-06     -17.2977 
         -50         1.92  0.000105189  3.74476e-06     -17.2974 
         -50      2.25333   0.00010853  4.70179e-06      -17.297 
         -50      2.61333  0.000113374  7.53915e-06     -17.2965 
         -50            3  0.000118301  1.19611e-05     -17.2959 
         -25            0           -0           -0     -16.6103 
         -25     0.013333  9.06566e-05  1.70627e-08     -16.6103 
         -25     0.053333  8.69729e-05  2.21805e-07     -16.6103 
         -25         0.12  8.37049e-05  9.02073e-07     -16.6103 
         -25     0.213332  7.57426e-05  2.25155e-06     -16.6102 
         -25     0.333332  6.78368e-05  4.23191e-06     -16.6102 
         -25         0.48  6.39558e-05  6.80852e-06     -16.6102 
         -25     0.653331  6.65485e-05  9.77852e-06     -16.6102 
         -25     0.853332  7.40829e-05  1.31794e-05     -16.6102 
         -25         1.08  8.03657e-05  1.65536e-05     -16.6101 
         -25      1.33333  8.22879e-05  1.92288e-05     -16.6101 
         -25      1.61333  8.18827e-05  2.11166e-05       -16.61 
         -25         1.92  8.22718e-05  2.17736e-05     -16.6098 
         -25      2.25333  7.89527e-05  2.11668e-05     -16.6097 
         -25      2.61333  7.31572e-05  1.97436e-05     -16.6095 
         -25            3  7.09738e-05  1.91463e-05     -16.6093 
           0            0            0            0     -16.0467 
           0     0.013333  0.000275946 -0.000156937     -16.0469 
           0     0.053333  0.000149879 -8.20331e-05      -16.048 
           0         0.12  0.000103255 -5.26205e-05     -16.0491 
           0     0.213332  7.76614e-05 -4.03648e-05     -16.0504 
           0     0.333332  6.50519e-05 -3.22002e-05     -16.0517 
           0         0.48  5.91651e-05 -2.55347e-05      -16.053 
           0     0.653331  5.79052e-05 -2.00321e-05     -16.0543 
           0     0.853332  5.95035e-05 -1.53248e-05     -16.0555 
           0         1.08  6.22591e-05 -1.12729e-05     -16.0567 
           0      1.33333  6.51365e-05 -7.84496e-06     -16.0579 
           0      1.61333  6.67932e-05 -5.13397e-06     -16.0589 
           0         1.92  6.71861e-05 -2.86333e-06       -16.06 
           0      2.25333  7.44056e-05 -6.31572e-07     -16.0609 
           0      2.61333  8.47218e-05  8.52304e-07     -16.0618 
           0            3  8.51272e-05   5.6894e-07     -16.0626 
          20            0            0            0     -15.6965 
          20     0.013333  6.39019e-05  3.31507e-08     -15.6965 
          20     0.053333  3.96354e-05  4.49113e-07     -15.6965 
          20         0.12  6.15963e-06  1.76177e-06     -15.6965 
          20     0.213332 -2.55162e-05  3.96963e-06     -15.6965 
          20     0.333332 -3.99993e-05  6.52956e-06     -15.6965 
          20         0.48 -3.73914e-05  9.02782e-06     -15.6965 
          20     0.653331 -2.81766e-05  1.12895e-05     -15.6965 
          20     0.853332  -1.6507e-05  1.32371e-05     -15.6965 
          20         1.08  2.98779e-06   1.4981e-05     -15.6965 
          20      1.33333  2.61553e-05   1.6408e-05     -15.6964 
          20      1.61333  4.91027e-05  1.71419e-05     -15.6964 
          20         1.92    6.826e-05  1.69479e-05     -15.6963 
          20      2.25333  8.20172e-05   1.6026e-05     -15.6962 
          20      2.61333  9.30655e-05  1.52318e-05     -15.6961 
          20            3  0.000100993  1.44944e-05      -15.696 
          40            0            0            0     -15.3394 
          40     0.013333  4.26339e-05  3.92429e-08     -15.3394 
          40     0.053333 -2.37459e-05  5.03415e-07     -15.3394 
          40         0.12 -0.000104964   1.7442e-06     -15.3394 
          40     0.213332 -0.000167328  3.13217e-06     -15.3394 
          40     0.333332 -0.000190397  3.39406e-06     -15.3394 
          40         0.48 -0.000186372  1.91571e-06     -15.3394 
          40     0.653331 -0.000171883 -7.11993e-07     -15.3394 
          40     0.853332 -0.000145997 -3.20827e-06     -15.3394 
          40         1.08 -0.000105416 -5.11833e-06     -15.3394 
          40      1.33333 -5.70136e-05 -6.65723e-06     -15.3393 
          40      1.61333 -6.00292e-06 -8.16316e-06     -15.3393 
          40         1.92  4.53775e-05 -9.03122e-06     -15.3393 
          40      2.25333   9.0632e-05 -9.70462e-06     -15.3393 
          40      2.61333  0.000121512  -9.7301e-06     -15.3392 
          40            3  0.000135981 -7.48223e-06     -15.3392 
          60            0           -0           -0     -15.0004 
          60     0.013333  4.85578e-05  3.72247e-08     -15.0004 
          60     0.053333  2.67511e-06  4.97018e-07     -15.0004 
          60         0.12 -5.96885e-05  1.87477e-06     -15.0004 
          60     0.213332   -0.0001194   3.9942e-06     -15.0004 
          60     0.333332 -0.000158626  6.13226e-06     -15.0004 
          60         0.48 -0.000178016  7.87038e-06     -15.0004 
          60     0.653331 -0.000180743  9.60503e-06     -15.0004 
          60     0.853332 -0.000158595  1.23955e-05     -15.0004 
          60         1.08 -0.000111486  1.65291e-05     -15.0004 
          60      1.33333 -6.03905e-05  2.10298e-05     -15.0004 
          60      1.61333 -1.38157e-05  2.48035e-05     -15.0004 
          60         1.92  3.10269e-05  2.72908e-05     -15.0003 
          60      2.25333  6.78064e-05  2.87074e-05     -15.0003 
          60      2.61333  9.37968e-05  2.87661e-05     -15.0003 
          60            3  0.000109305  2.76402e-05     -15.0003 
          80            0           -0           -0      -14.672 
          80     0.013333  6.51842e-05 -3.16343e-09      -14.672 
          80     0.053333  7.43762e-05 -5.03974e-08      -14.672 
          80         0.12  9.32746e-05 -2.17779e-07      -14.672 
          80     0.213332  0.000111493 -4.61313e-07      -14.672 
          80     0.333332  0.000121646 -5.05185e-07      -14.672 
          80         0.48  0.000122462 -2.40804e-08      -14.672 
          80     0.653331  0.000118886  1.14029e-06      -14.672 
          80     0.853332  0.000115852  3.04302e-06      -14.672 
          80         1.08  0.000113049  5.60356e-06      -14.672 
          80      1.33333  0.000104146  8.31796e-06     -14.6719 
          80      1.61333  8.94442e-05  1.06923e-05     -14.6719 
          80         1.92   7.3745e-05  1.27219e-05     -14.6719 
          80      2.25333  5.86116e-05  1.39342e-05     -14.6719 
          80      2.61333  4.73321e-05  1.46379e-05     -14.6719 
          80            3  4.20673e-05  1.47508e-05     -14.6719 
         100            0            0            0     -14.3503 
         100     0.013333   6.1303e-05 -3.08974e-08     -14.3503 
         100     0.053333  6.84521e-05 -4.46941e-07     -14.3503 
         100         0.12  9.53407e-05 -1.88425e-06     -14.3503 
         100     0.213332  0.000129178 -4.56972e-06     -14.3503 
         100     0.333332  0.000152332 -8.05552e-06     -14.3503 
         100         0.48  0.000157301 -1.17991e-05     -14.3503 
         100     0.653331  0.000147182 -1.57065e-05     -14.3503 
         100     0.853332  0.000126906 -1.98619e-05     -14.3503 
         100         1.08  0.000105248 -2.38518e-05     -14.3503 
         100      1.33333  8.78946e-05 -2.71046e-05     -14.3503 
         100      1.61333  7.13711e-05 -2.93434e-05     -14.3503 
         100         1.92   5.5063e-05 -3.03598e-05     -14.3503 
         100      2.25333   4.0415e-05 -3.01032e-05     -14.3503 
         100      2.61333  2.80452e-05  -2.8685e-05     -14.3502 
         100            3  2.00212e-05 -2.60699e-05     -14.3502 
         150            0           -0           -0     -13.5615 
         150     0.013333  6.06845e-05  1.30469e-08     -13.5615 
         150     0.053333  5.96438e-05  1.89421e-07     -13.5615 
         150         0.12  5.67803e-05  8.12452e-07     -13.5615 
         150     0.213332  4.87011e-05  2.04064e-06     -13.5615 
         150     0.333332  4.04214e-05  3.79659e-06     -13.5615 
         150         0.48  3.53297e-05  5.94607e-06     -13.5615 
         150     0.653331  3.50357e-05  8.49965e-06     -13.5615 
         150     0.853332  4.07592e-05   1.1542e-05     -13.5615 
         150         1.08  4.88842e-05   1.4827e-05     -13.5615 
         150      1.33333  5.22818e-05  1.77326e-05     -13.5615 
         150      1.61333  5.22122e-05  1.98901e-05     -13.5615 
         150         1.92  5.21611e-05  2.12339e-05     -13.5615 
         150      2.25333  5.18188e-05   2.1565e-05     -13.5615 
         150      2.61333  5.24175e-05  2.09597e-05     -13.5614 
         150            3   5.4424e-05   1.9452e-05     -13.5614 
         200            0  1.54188e-19  1.03078e-26     -12.7814 
         200     0.013333  8.65457e-05 -1.51147e-08     -12.7814 
         200     0.053333  0.000158197 -1.65931e-07     -12.7814 
         200         0.12  0.000249036 -3.57567e-07     -12.7814 
         200     0.213332  0.000315547  2.11276e-07     -12.7814 
         200     0.333332  0.000338977  2.63904e-06     -12.7814 
         200         0.48  0.000332704  7.42608e-06     -12.7814 
         200     0.653331  0.000319223    1.418e-05     -12.7814 
         200     0.853332  0.000303399  2.18116e-05     -12.7814 
         200         1.08  0.000274227  2.91328e-05     -12.7814 
         200      1.33333  0.000229972  3.54628e-05     -12.7814 
         200      1.61333  0.000179893  4.07753e-05     -12.7814 
         200         1.92  0.000126271  4.47631e-05     -12.7814 
         200      2.25333  7.27556e-05  4.69892e-05     -12.7814 
         200      2.61333  2.71894e-05    4.743e-05     -12.7814 
         200            3 -3.78397e-06   4.6124e-05     -12.7814 
         250            0           -0           -0     -12.0033 
         250     0.013333  5.72438e-05  1.91402e-08     -12.0033 
         250     0.053333  4.53781e-05  2.94606e-07     -12.0033 
         250         0.12  1.91723e-05  1.36553e-06     -12.0033 
         250     0.213332 -2.33609e-05  3.69422e-06     -12.0033 
         250     0.333332 -6.57809e-05  7.20521e-06     -12.0033 
         250         0.48 -9.24723e-05  1.13126e-05     -12.0033 
         250     0.653331 -0.000100645  1.54233e-05     -12.0033 
         250     0.853332 -9.60838e-05  1.92409e-05     -12.0033 
         250         1.08 -8.41614e-05   2.2637e-05     -12.0033 
         250      1.33333  -6.7129e-05  2.54736e-05     -12.0033 
         250      1.61333  -4.4943e-05  2.76293e-05     -12.0033 
         250         1.92 -1.85744e-05  2.89202e-05     -12.0033 
         250      2.25333  1.01542e-05  2.92131e-05     -12.0033 
         250      2.61333  3.81728e-05  2.84449e-05     -12.0033 
         250            3  6.12078e-05  2.66668e-05     -12.0033 
         300            0           -0           -0     -11.2244 
         300     0.013333  9.97214e-05  6.99598e-09     -11.2244 
         300     0.053333  0.000199743  1.80336e-07     -11.2244 
         300         0.12  0.000308784  1.29317e-06     -11.2244 
         300     0.213332  0.000368518  4.86634e-06     -11.2244 
         300     0.333332  0.000367753  1.22382e-05     -11.2244 
         300         0.48  0.000338394  2.35491e-05     -11.2244 
         300     0.653331  0.000315278  3.78552e-05     -11.2244 
         300     0.853332  0.000305095  5.36898e-05     -11.2244 
         300         1.08  0.000288751  6.93601e-05     -11.2244 
         300      1.33333  0.000251604  8.34186e-05     -11.2244 
         300      1.61333  0.000202782  9.53021e-05     -11.2244 
         300         1.92  0.000152357  0.000104491     -11.2244 
         300      2.25333  0.000101293  0.000110207     -11.2244 
         300      2.61333  5.31902e-05  0.000111869     -11.2244 
         300            3  1.37675e-05  0.000109349     -11.2244 
         350            0           -0           -0     -10.4445 
         350     0.013333  9.88027e-05 -4.19904e-08     -10.4445 
         350     0.053333  0.000210008 -5.48092e-07     -10.4445 
         350         0.12  0.000363222 -1.93157e-06     -10.4445 
         350     0.213332  0.000493589 -3.47415e-06     -10.4445 
         350     0.333332  0.000555947  -3.4841e-06     -10.4445 
         350         0.48  0.000555922 -7.45156e-07     -10.4445 
         350     0.653331  0.000528347   4.5408e-06     -10.4445 
         350     0.853332  0.000492177  1.10398e-05     -10.4445 
         350         1.08    0.0004403  1.72051e-05     -10.4445 
         350      1.33333  0.000368974  2.22721e-05     -10.4445 
         350      1.61333  0.000291476  2.65551e-05     -10.4445 
         350         1.92  0.000212936  3.03089e-05     -10.4445 
         350      2.25333   0.00013301  3.31042e-05     -10.4445 
         350      2.61333  5.78446e-05  3.48023e-05     -10.4446 
         350            3 -2.88169e-06   3.5316e-05     -10.4446 
         400            0           -0           -0     -9.66368 
         400     0.013333  2.06359e-05 -6.10533e-08     -9.66368 
         400     0.053333 -6.02993e-05 -9.59134e-07     -9.66368 
         400         0.12 -0.000106132 -4.59701e-06     -9.66368 
         400     0.213332 -7.70794e-05  -1.3058e-05     -9.66368 
         400     0.333332   5.0682e-06 -2.71702e-05     -9.66368 
         400         0.48  8.53261e-05 -4.61363e-05     -9.66368 
         400     0.653331  0.000126811 -6.86035e-05     -9.66368 
         400     0.853332  0.000123619 -9.35357e-05     -9.66368 
         400         1.08  9.36105e-05 -0.000119757     -9.66369 
         400      1.33333   6.7949e-05 -0.000145289     -9.66369 
         400      1.61333  6.03558e-05 -0.000168103     -9.66369 
         400         1.92  5.74023e-05 -0.000186952     -9.66369 
         400      2.25333  5.30788e-05 -0.000200489     -9.66369 
         400      2.61333  4.82583e-05 -0.000207527     -9.66369 
         400            3  4.56591e-05 -0.000207444     -9.66369 
         450            0  6.32405e-20  1.05537e-26     -8.88111 
         450     0.013333  4.69922e-05  6.00263e-08     -8.88111 
         450     0.053333 -9.74477e-07  8.74255e-07     -8.88111 
         450         0.12 -9.31272e-05  3.76894e-06     -8.88111 
         450     0.213332 -0.000214208  9.49513e-06     -8.88111 
         450     0.333332 -0.000319139  1.74835e-05     -8.88111 
         450         0.48 -0.000377193  2.64358e-05     -8.88111 
         450     0.653331 -0.000389615  3.55078e-05     -8.88111 
         450     0.853332 -0.000369639   4.4785e-05     -8.88111 
         450         1.08 -0.000323438  5.47536e-05     -8.88111 
         450      1.33333 -0.000259397  6.52933e-05     -8.88111 
         450      1.61333 -0.000193638  7.54111e-05     -8.88111 
         450         1.92 -0.000130049   8.3893e-05     -8.88111 
         450      2.25333 -6.40931e-05  9.03416e-05     -8.88111 
         450      2.61333  1.98344e-06  9.40519e-05      -8.8811 
         450            3  6.11439e-05  9.45863e-05      -8.8811 
         500            0            0            0       -8.096 
         500     0.013333  9.32034e-05 -8.39917e-08       -8.096 
         500     0.053333  0.000205914 -1.20501e-06       -8.096 
         500         0.12   0.00040212 -5.05805e-06       -8.096 
         500     0.213332   0.00062658 -1.22487e-05       -8.096 
         500     0.333332  0.000799687 -2.13676e-05       -8.096 
         500         0.48  0.000879957 -3.01845e-05       -8.096 
         500     0.653331  0.000883675 -3.75486e-05       -8.096 
         500     0.853332  0.000841656 -4.39401e-05       -8.096 
         500         1.08   0.00076609 -5.04671e-05       -8.096 
         500      1.33333  0.000664424 -5.74628e-05       -8.096 
         500      1.61333  0.000552481 -6.41605e-05     -8.09601 
         500         1.92  0.000436129 -6.96077e-05     -8.09601 
         500      2.25333  0.000311535 -7.34706e-05     -8.09602 
         500      2.61333  0.000182484 -7.53565e-05     -8.09602 
         500            3  6.10432e-05  -7.4985e-05     -8.09603 
         550            0           -0           -0     -7.30945 
         550     0.013333  1.92298e-05  7.03926e-08     -7.30945 
         550     0.053333 -0.000103421  9.89877e-07     -7.30945 
         550         0.12 -0.000291808   4.0368e-06     -7.30945 
         550     0.213332 -0.000496603  9.45454e-06     -7.30945 
         550     0.333332 -0.000651807  1.59502e-05     -7.30945 
         550         0.48 -0.000730669  2.18538e-05     -7.30945 
         550     0.653331  -0.00075148  2.65097e-05     -7.30945 
         550     0.853332 -0.000737233  3.06364e-05     -7.30945 
         550         1.08 -0.000685194  3.57918e-05     -7.30945 
         550      1.33333 -0.000588263   4.2952e-05     -7.30945 
         550      1.61333 -0.000468726  5.13157e-05     -7.30945 
         550         1.92 -0.000350569  5.92502e-05     -7.30945 
         550      2.25333 -0.000228276  6.59858e-05     -7.30944 
         550      2.61333 -0.000101657  7.10873e-05     -7.30944 
         550            3  1.87507e-05   7.4213e-05     -7.30943 
         600            0           -0           -0     -6.52019 
         600     0.013333  3.28209e-05 -2.79014e-08     -6.52019 
         600     0.053333 -2.52733e-05 -4.48273e-07     -6.52019 
         600         0.12 -6.44465e-05 -2.23341e-06     -6.52019 
         600     0.213332 -5.20795e-05 -6.68227e-06     -6.52019 
         600     0.333332  1.01799e-05 -1.47129e-05     -6.52019 
         600         0.48  8.84547e-05 -2.62714e-05     -6.52019 
         600     0.653331  0.000149282 -4.04875e-05     -6.52019 
         600     0.853332  0.000180476 -5.63479e-05     -6.52019 
         600         1.08  0.000186704 -7.31345e-05     -6.52019 
         600      1.33333  0.000176459 -9.03927e-05     -6.52019 
         600      1.61333  0.000158053 -0.000107512     -6.52019 
         600         1.92  0.000140046 -0.000123417     -6.52019 
         600      2.25333  0.000121847 -0.000137041     -6.52019 
         600      2.61333    0.0001022 -0.000147325      -6.5202 
         600            3  8.23033e-05 -0.000153457      -6.5202 
         650            0            0            0     -5.72956 
         650     0.013333  0.000151822 -1.72647e-08     -5.72956 
         650     0.053333  0.000396223 -1.41298e-07     -5.72956 
         650         0.12  0.000696695  1.64823e-07     -5.72956 
         650     0.213332  0.000920452  3.06537e-06     -5.72956 
         650     0.333332  0.000992037  1.16331e-05     -5.72956 
         650         0.48  0.000937816  2.77033e-05     -5.72956 
         650     0.653331  0.000841041  5.07057e-05     -5.72956 
         650     0.853332  0.000760664  7.84243e-05     -5.72956 
         650         1.08  0.000698436  0.000108137     -5.72956 
         650      1.33333  0.000625696  0.000137434     -5.72956 
         650      1.61333  0.000530675  0.000164853     -5.72956 
         650         1.92  0.000426247  0.000189981     -5.72957 
         650      2.25333  0.000316665  0.000211441     -5.72957 
         650      2.61333  0.000203352  0.000227924     -5.72958 
         650            3  9.17015e-05  0.000238278     -5.72959 
         700            0            0            0     -4.93908 
         700     0.013333 -5.54329e-05  1.50681e-07     -4.93908 
         700     0.053333 -0.000398883  2.12648e-06     -4.93908 
         700         0.12  -0.00091955  8.68356e-06     -4.93908 
         700     0.213332  -0.00147178  2.01745e-05     -4.93908 
         700     0.333332  -0.00187203  3.30932e-05     -4.93908 
         700         0.48  -0.00204006  4.26836e-05     -4.93908 
         700     0.653331  -0.00203046  4.66986e-05     -4.93908 
         700     0.853332  -0.00193287  4.64621e-05     -4.93908 
         700         1.08  -0.00178079  4.52814e-05     -4.93908 
         700      1.33333  -0.00156897   4.5554e-05     -4.93908 
         700      1.61333  -0.00131639   4.7171e-05     -4.93908 
         700         1.92  -0.00105497  4.84573e-05     -4.93907 
         700      2.25333 -0.000779204  4.87852e-05     -4.93906 
         700      2.61333 -0.000486305  4.80752e-05     -4.93905 
         700            3 -0.000190229  4.62704e-05     -4.93903 
         750            0           -0           -0     -4.14571 
         750     0.013333    2.389e-05 -2.06478e-07     -4.14571 
         750     0.053333 -3.62503e-06   -3.108e-06     -4.14571 
         750         0.12  0.000125196 -1.41025e-05     -4.14571 
         750     0.213332  0.000448164 -3.79215e-05     -4.14571 
         750     0.333332  0.000847644  -7.5125e-05     -4.14571 
         750         0.48   0.00116269 -0.000122301     -4.14571 
         750     0.653331   0.00131763 -0.000175664     -4.14571 
         750     0.853332   0.00131956 -0.000233851     -4.14571 
         750         1.08   0.00119582 -0.000297203     -4.14571 
         750      1.33333  0.000994992  -0.00036444     -4.14571 
         750      1.61333  0.000797851 -0.000431092     -4.14571 
         750         1.92  0.000644077 -0.000492173     -4.14572 
         750      2.25333  0.000498302 -0.000544485     -4.14572 
         750      2.61333   0.00034163 -0.000585177     -4.14573 
         750            3  0.000182061 -0.000611346     -4.14574 
         800            0            0            0      -3.3517 
         800     0.013333  0.000134927  1.18917e-07      -3.3517 
         800     0.053333  0.000294103  1.87196e-06      -3.3517 
         800         0.12  0.000390577   9.0303e-06      -3.3517 
         800     0.213332  0.000319908  2.59221e-05      -3.3517 
         800     0.333332  0.000119894  5.45548e-05      -3.3517 
         800         0.48 -8.30156e-05   9.3374e-05      -3.3517 
         800     0.653331 -0.000191371   0.00013914      -3.3517 
         800     0.853332  -0.00018581  0.000189411      -3.3517 
         800         1.08 -0.000100199  0.000242585      -3.3517 
         800      1.33333 -1.26291e-06   0.00029605      -3.3517 
         800      1.61333  4.75974e-05  0.000345934      -3.3517 
         800         1.92  4.97179e-05  0.000389689      -3.3517 
         800      2.25333  4.66641e-05  0.000426143      -3.3517 
         800      2.61333  5.10735e-05  0.000453552      -3.3517 
         800            3  5.56316e-05  0.000469814      -3.3517 
         850            0           -0           -0     -2.55602 
         850     0.013333 -0.000121739 -1.98383e-08     -2.55602 
         850     0.053333 -0.000583934 -4.92326e-07     -2.55602 
         850         0.12  -0.00111133  -3.5526e-06     -2.55602 
         850     0.213332  -0.00146753 -1.38655e-05     -2.55602 
         850     0.333332  -0.00153745  -3.6694e-05     -2.55602 
         850         0.48  -0.00139376 -7.44545e-05     -2.55602 
         850     0.653331  -0.00119895 -0.000125551     -2.55602 
         850     0.853332  -0.00106694 -0.000186146     -2.55602 
         850         1.08  -0.00100535 -0.000251725     -2.55603 
         850      1.33333 -0.000943969 -0.000317495     -2.55602 
         850      1.61333 -0.000823278  -0.00037938     -2.55602 
         850         1.92 -0.000661317 -0.000435588     -2.55602 
         850      2.25333 -0.000490289 -0.000485215     -2.55601 
         850      2.61333 -0.000316349 -0.000525722     -2.55601 
         850            3 -0.000137172 -0.000554104     -2.55599 
         900            0           -0           -0       -1.758 
         900     0.013333  8.41421e-05 -1.68867e-07       -1.758 
         900     0.053333   0.00020429 -2.48684e-06       -1.758 
         900         0.12  0.000489405 -1.09326e-05       -1.758 
         900     0.213332  0.000908084 -2.83349e-05       -1.758 
         900     0.333332   0.00132917 -5.40146e-05       -1.758 
         900         0.48    0.0016271 -8.46702e-05       -1.758 
         900     0.653331   0.00176952 -0.000117408       -1.758 
         900     0.853332   0.00178856 -0.000151744       -1.758 
         900         1.08   0.00170642 -0.000189304       -1.758 
         900      1.33333   0.00152766 -0.000231385       -1.758 
         900      1.61333   0.00129229 -0.000276551       -1.758 
         900         1.92   0.00106926 -0.000320614     -1.75801 
         900      2.25333  0.000855836  -0.00036024     -1.75801 
         900      2.61333  0.000633789 -0.000393458     -1.75802 
         900            3  0.000400149 -0.000418408     -1.75804 
         950            0           -0           -0    -0.959815 
         950     0.013333  0.000117726  5.40682e-09    -0.959815 
         950     0.053333  0.000271907  1.30213e-07    -0.959815 
         950         0.12  0.000465499  9.16206e-07    -0.959815 
         950     0.213332  0.000625487  3.49011e-06    -0.959815 
         950     0.333332  0.000714595  9.05994e-06    -0.959815 
         950         0.48  0.000742303  1.82027e-05    -0.959815 
         950     0.653331  0.000742863  3.07639e-05    -0.959815 
         950     0.853332  0.000745359  4.62704e-05    -0.959815 
         950         1.08  0.000758264  6.39824e-05    -0.959815 
         950      1.33333  0.000761936  8.24908e-05    -0.959815 
         950      1.61333  0.000723185  9.96205e-05    -0.959816 
         950         1.92  0.000636528  0.000114035    -0.959817 
         950      2.25333  0.000531686  0.000125895    -0.959819 
         950      2.61333   0.00042136  0.000134946    -0.959823 
         950            3  0.000303725  0.000140716    -0.959828 
        1000            0  6.53328e-20 -1.27229e-24    -0.160095 
        1000     0.013333  5.56726e-05 -1.66008e-08    -0.160095 
        1000     0.053333  5.17937e-05 -2.18534e-07    -0.160095 
        1000         0.12  6.32035e-05 -1.02041e-06    -0.160095 
        1000     0.213332  9.34087e-05 -2.96103e-06    -0.160095 
        1000     0.333332  0.000138323 -6.38323e-06    -0.160095 
        1000         0.48  0.000184691 -1.10454e-05    -0.160095 
        1000     0.653331  0.000220248 -1.65128e-05    -0.160095 
        1000     0.853332   0.00023943 -2.23991e-05    -0.160095 
        1000         1.08  0.000242944 -2.84461e-05    -0.160095 
        1000      1.33333  0.000236153 -3.44542e-05    -0.160095 
        1000      1.61333  0.000225961 -4.01128e-05    -0.160095 
        1000         1.92  0.000213413 -4.53858e-05    -0.160095 
        1000      2.25333  0.000195496 -5.01451e-05    -0.160095 
        1000      2.61333  0.000172347 -5.43722e-05    -0.160095 
        1000            3  0.000146063 -5.78357e-05    -0.160095 
