Variables = x, y, u, v, p

Zone, I=416, F=POINT
         -50            0 -2.55639e-19 -3.58419e-23     -87.1412 
         -50     0.013333 -0.000217686 -6.62868e-08     -87.1412 
         -50     0.053333 -0.000187174 -2.51705e-07     -87.1412 
         -50         0.12 -0.000172076  -6.4001e-07     -87.1412 
         -50     0.213332 -0.000162925 -1.15313e-06     -87.1411 
         -50     0.333332  -0.00015967  -1.7394e-06      -87.141 
         -50         0.48 -0.000159522 -2.40945e-06     -87.1408 
         -50     0.653331 -0.000161348 -3.03986e-06     -87.1406 
         -50     0.853332 -0.000165775 -3.10589e-06     -87.1401 
         -50         1.08 -0.000172219 -3.56008e-06     -87.1395 
         -50      1.33333 -0.000179644 -4.24878e-06     -87.1386 
         -50      1.61333 -0.000186914 -4.61419e-06     -87.1375 
         -50         1.92 -0.000197921 -5.79929e-06     -87.1359 
         -50      2.25333 -0.000208696 -7.61968e-06     -87.1339 
         -50      2.61333 -0.000212848 -9.58331e-06     -87.1315 
         -50            3 -0.000209626 -1.06641e-05     -87.1284 
         -25            0           -0           -0     -83.6364 
         -25     0.013333 -0.000157253 -2.07527e-08     -83.6364 
         -25     0.053333 -0.000132516  3.55403e-09     -83.6364 
         -25         0.12 -0.000122695  2.23193e-07     -83.6364 
         -25     0.213332  -0.00012102   8.1966e-07     -83.6364 
         -25     0.333332 -0.000123965  1.89524e-06     -83.6363 
         -25         0.48 -0.000126415  3.38964e-06     -83.6363 
         -25     0.653331 -0.000126069  5.24872e-06     -83.6361 
         -25     0.853332 -0.000124437  7.38335e-06      -83.636 
         -25         1.08 -0.000125498  9.37688e-06     -83.6357 
         -25      1.33333 -0.000129793  1.09345e-05     -83.6354 
         -25      1.61333 -0.000135401  1.18065e-05      -83.635 
         -25         1.92 -0.000141589   1.2183e-05     -83.6344 
         -25      2.25333 -0.000145716  1.14424e-05     -83.6336 
         -25      2.61333 -0.000148663  9.21953e-06     -83.6327 
         -25            3  -0.00015128  6.38216e-06     -83.6315 
           0            0            0            0     -80.7655 
           0     0.013333 -0.000385037  0.000261881     -80.7688 
           0     0.053333  -0.00024879  0.000131034     -80.7741 
           0         0.12 -0.000205837  9.11277e-05     -80.7802 
           0     0.213332 -0.000191386  7.04489e-05     -80.7866 
           0     0.333332 -0.000183426  5.86633e-05     -80.7932 
           0         0.48 -0.000172912  5.02618e-05     -80.7999 
           0     0.653331 -0.000162322  4.41886e-05     -80.8065 
           0     0.853332 -0.000152917  3.96164e-05     -80.8129 
           0         1.08 -0.000145063  3.59889e-05     -80.8191 
           0      1.33333 -0.000138285  3.28917e-05     -80.8251 
           0      1.61333 -0.000132246  2.99937e-05     -80.8307 
           0         1.92 -0.000125897  2.72656e-05      -80.836 
           0      2.25333 -0.000118456  2.49104e-05     -80.8409 
           0      2.61333 -0.000110461  2.21787e-05     -80.8454 
           0            3 -0.000109028  1.72843e-05     -80.8495 
          20            0            0            0     -78.9857 
          20     0.013333 -0.000118361  2.19286e-08     -78.9857 
          20     0.053333 -9.57301e-05    4.918e-07     -78.9857 
          20         0.12 -0.000101245  2.28654e-06     -78.9857 
          20     0.213332 -0.000128301  6.03955e-06     -78.9857 
          20     0.333332  -0.00015777  1.16864e-05     -78.9856 
          20         0.48 -0.000175113  1.87798e-05     -78.9856 
          20     0.653331 -0.000181982  2.67284e-05     -78.9856 
          20     0.853332 -0.000179284  3.50128e-05     -78.9855 
          20         1.08 -0.000164911  4.31137e-05     -78.9853 
          20      1.33333 -0.000148509  4.99447e-05     -78.9852 
          20      1.61333  -0.00013312  5.45579e-05     -78.9849 
          20         1.92 -0.000119432  5.60857e-05     -78.9846 
          20      2.25333 -0.000111366  5.48547e-05     -78.9842 
          20      2.61333 -0.000109617   5.1025e-05     -78.9838 
          20            3 -0.000111441  4.49013e-05     -78.9832 
          40            0            0            0     -77.1658 
          40     0.013333 -0.000125757 -8.59308e-09     -77.1658 
          40     0.053333  -0.00013176 -1.19335e-07     -77.1658 
          40         0.12 -0.000136705 -8.06338e-07     -77.1658 
          40     0.213332 -0.000119876 -2.87841e-06     -77.1658 
          40     0.333332 -9.01012e-05 -6.69971e-06     -77.1658 
          40         0.48 -6.71072e-05 -1.17299e-05     -77.1658 
          40     0.653331 -5.77509e-05 -1.69482e-05     -77.1658 
          40     0.853332 -5.35022e-05 -2.14071e-05     -77.1657 
          40         1.08 -5.09389e-05 -2.48863e-05     -77.1657 
          40      1.33333 -5.51661e-05 -2.76665e-05     -77.1656 
          40      1.61333 -6.48004e-05 -2.96057e-05     -77.1655 
          40         1.92 -7.57505e-05 -3.04414e-05     -77.1654 
          40      2.25333 -8.46428e-05 -2.96889e-05     -77.1653 
          40      2.61333 -9.08979e-05 -2.81348e-05     -77.1651 
          40            3 -9.83998e-05 -2.82427e-05     -77.1648 
          60            0           -0           -0     -75.4374 
          60     0.013333 -0.000136159 -4.85527e-08     -75.4374 
          60     0.053333 -0.000171517   -7.397e-07     -75.4374 
          60         0.12 -0.000191381 -3.56844e-06     -75.4374 
          60     0.213332 -0.000166834 -1.00612e-05     -75.4373 
          60     0.333332 -0.000120627 -2.05267e-05     -75.4373 
          60         0.48 -8.88495e-05 -3.41299e-05     -75.4373 
          60     0.653331 -8.89526e-05  -4.9859e-05     -75.4373 
          60     0.853332  -0.00010946 -6.62903e-05     -75.4373 
          60         1.08 -0.000119771 -8.12095e-05     -75.4373 
          60      1.33333 -0.000113876 -9.29911e-05     -75.4372 
          60      1.61333 -0.000107038 -0.000101107     -75.4372 
          60         1.92 -0.000102889 -0.000104919     -75.4371 
          60      2.25333 -9.82835e-05 -0.000103495      -75.437 
          60      2.61333 -9.10751e-05 -9.76362e-05     -75.4369 
          60            3 -8.43667e-05  -8.9191e-05     -75.4368 
          80            0           -0           -0     -73.7621 
          80     0.013333 -0.000131964 -3.82657e-08     -73.7621 
          80     0.053333 -0.000166656  -5.9212e-07     -73.7621 
          80         0.12 -0.000192087 -2.88226e-06     -73.7621 
          80     0.213332 -0.000180024 -8.20752e-06      -73.762 
          80     0.333332 -0.000146715 -1.69128e-05      -73.762 
          80         0.48 -0.000121349 -2.83397e-05      -73.762 
          80     0.653331  -0.00011833 -4.15969e-05      -73.762 
          80     0.853332 -0.000129723 -5.55517e-05      -73.762 
          80         1.08 -0.000132805 -6.84913e-05      -73.762 
          80      1.33333 -0.000121455 -7.88818e-05      -73.762 
          80      1.61333 -0.000109839 -8.62299e-05     -73.7619 
          80         1.92 -0.000101294 -8.98788e-05     -73.7619 
          80      2.25333 -9.29925e-05 -8.93315e-05     -73.7618 
          80      2.61333 -8.83979e-05 -8.53249e-05     -73.7618 
          80            3  -9.0116e-05 -7.82602e-05     -73.7617 
         100            0            0            0     -72.1203 
         100     0.013333 -0.000131356 -3.30555e-08     -72.1203 
         100     0.053333 -0.000169355 -5.36276e-07     -72.1202 
         100         0.12 -0.000197645 -2.72019e-06     -72.1202 
         100     0.213332 -0.000184896 -8.00117e-06     -72.1202 
         100     0.333332 -0.000147831 -1.68255e-05     -72.1202 
         100         0.48 -0.000118993 -2.84185e-05     -72.1202 
         100     0.653331 -0.000112766 -4.15887e-05     -72.1202 
         100     0.853332 -0.000118397 -5.49768e-05     -72.1202 
         100         1.08 -0.000117003 -6.71177e-05     -72.1202 
         100      1.33333 -0.000107513 -7.69703e-05     -72.1202 
         100      1.61333 -9.87782e-05  -8.4048e-05     -72.1202 
         100         1.92 -9.09382e-05  -8.7704e-05     -72.1202 
         100      2.25333 -8.39673e-05 -8.73542e-05     -72.1201 
         100      2.61333 -8.24881e-05 -8.39061e-05     -72.1201 
         100            3 -9.01329e-05 -7.85853e-05       -72.12 
         150            0           -0           -0      -68.094 
         150     0.013333 -7.65881e-05  2.69988e-08      -68.094 
         150     0.053333 -9.93648e-07     4.76e-07      -68.094 
         150         0.12  4.96907e-05  2.53243e-06      -68.094 
         150     0.213332  4.77689e-05  7.74991e-06      -68.094 
         150     0.333332  7.49634e-06  1.68515e-05      -68.094 
         150         0.48 -3.26675e-05  2.92859e-05      -68.094 
         150     0.653331 -4.93861e-05   4.3952e-05      -68.094 
         150     0.853332 -4.75788e-05  5.94368e-05      -68.094 
         150         1.08 -5.10207e-05  7.39169e-05      -68.094 
         150      1.33333 -6.75711e-05  8.59447e-05      -68.094 
         150      1.61333 -8.45916e-05   9.5143e-05      -68.094 
         150         1.92 -9.89467e-05  0.000100808     -68.0939 
         150      2.25333 -0.000109272  0.000102312     -68.0939 
         150      2.61333 -0.000115396  9.95943e-05     -68.0939 
         150            3 -0.000118212  9.31824e-05     -68.0939 
         200            0 -2.49365e-19 -1.60635e-25     -64.1171 
         200     0.013333 -0.000111936  2.01923e-08     -64.1171 
         200     0.053333 -0.000122987  2.82904e-07     -64.1171 
         200         0.12  -0.00015504  1.12708e-06     -64.1171 
         200     0.213332 -0.000187173  2.52197e-06     -64.1171 
         200     0.333332  -0.00020292  3.96505e-06     -64.1171 
         200         0.48 -0.000199966  4.95747e-06     -64.1171 
         200     0.653331   -0.0001872  5.42418e-06     -64.1171 
         200     0.853332  -0.00017087  5.64716e-06     -64.1171 
         200         1.08 -0.000152686  5.80998e-06     -64.1171 
         200      1.33333 -0.000135102  5.82289e-06     -64.1171 
         200      1.61333 -0.000118878   5.5041e-06     -64.1171 
         200         1.92 -0.000103402  4.84104e-06     -64.1171 
         200      2.25333 -8.97084e-05  3.96144e-06     -64.1171 
         200      2.61333 -7.96705e-05  2.82558e-06     -64.1171 
         200            3 -7.51905e-05  1.51045e-06     -64.1171 
         250            0           -0           -0     -60.1567 
         250     0.013333 -9.55479e-05  4.55849e-08     -60.1567 
         250     0.053333 -7.34982e-05  6.87316e-07     -60.1567 
         250         0.12 -8.89902e-05  3.11548e-06     -60.1567 
         250     0.213332 -0.000143579  8.34719e-06     -60.1567 
         250     0.333332 -0.000212787  1.64745e-05     -60.1567 
         250         0.48 -0.000267025  2.68101e-05     -60.1567 
         250     0.653331 -0.000292796  3.86844e-05     -60.1567 
         250     0.853332 -0.000288185  5.18338e-05     -60.1567 
         250         1.08 -0.000259746  6.58675e-05     -60.1567 
         250      1.33333 -0.000224197   7.9664e-05     -60.1567 
         250      1.61333 -0.000191654  9.18016e-05     -60.1567 
         250         1.92 -0.000157936   0.00010136     -60.1567 
         250      2.25333 -0.000123909  0.000107289     -60.1567 
         250      2.61333 -9.33618e-05  0.000109165     -60.1567 
         250            3 -6.85785e-05  0.000107206     -60.1567 
         300            0           -0           -0     -56.2014 
         300     0.013333 -7.84379e-05 -3.22026e-08     -56.2014 
         300     0.053333  6.93797e-06 -4.21869e-07     -56.2014 
         300         0.12   0.00010981 -1.50651e-06     -56.2014 
         300     0.213332   0.00019775 -2.82478e-06     -56.2014 
         300     0.333332  0.000244425 -3.27962e-06     -56.2014 
         300         0.48  0.000255315 -2.19422e-06     -56.2014 
         300     0.653331  0.000249052   8.2134e-08     -56.2014 
         300     0.853332  0.000230302  2.45318e-06     -56.2014 
         300         1.08  0.000191458  3.93988e-06     -56.2014 
         300      1.33333     0.000137   4.4267e-06     -56.2014 
         300      1.61333  8.02975e-05   4.4872e-06     -56.2014 
         300         1.92  2.28885e-05  4.40502e-06     -56.2014 
         300      2.25333 -3.54316e-05  4.02405e-06     -56.2014 
         300      2.61333 -8.96099e-05  3.46265e-06     -56.2014 
         300            3 -0.000132432  2.77759e-06     -56.2014 
         350            0           -0           -0     -52.2477 
         350     0.013333 -6.68589e-05  1.58689e-10     -52.2477 
         350     0.053333  3.83766e-05  8.17337e-08     -52.2477 
         350         0.12  0.000139318  8.74807e-07     -52.2477 
         350     0.213332  0.000189079   3.8264e-06     -52.2477 
         350     0.333332  0.000177301  1.03002e-05     -52.2477 
         350         0.48  0.000138093  2.04346e-05     -52.2477 
         350     0.653331  0.000107937  3.31745e-05     -52.2477 
         350     0.853332  9.31021e-05   4.6894e-05     -52.2477 
         350         1.08  7.27774e-05  5.98484e-05     -52.2477 
         350      1.33333  3.55503e-05  7.09713e-05     -52.2477 
         350      1.61333 -4.10233e-06  8.03626e-05     -52.2477 
         350         1.92 -3.98996e-05  8.79152e-05     -52.2477 
         350      2.25333 -7.39561e-05  9.29228e-05     -52.2477 
         350      2.61333 -0.000104343  9.48732e-05     -52.2477 
         350            3 -0.000127193  9.35431e-05     -52.2477 
         400            0           -0           -0     -48.2941 
         400     0.013333 -0.000109946 -2.77221e-08     -48.2941 
         400     0.053333 -0.000104219 -4.13154e-07     -48.2941 
         400         0.12 -8.79166e-05 -1.86076e-06     -48.2941 
         400     0.213332 -4.68924e-05  -5.0205e-06     -48.2941 
         400     0.333332  8.85159e-06 -1.01139e-05     -48.2941 
         400         0.48  6.15358e-05 -1.68834e-05     -48.2941 
         400     0.653331  9.90327e-05 -2.48722e-05     -48.2941 
         400     0.853332  0.000116368 -3.38629e-05     -48.2941 
         400         1.08  0.000108141 -4.40413e-05     -48.2941 
         400      1.33333  7.65532e-05 -5.53378e-05     -48.2941 
         400      1.61333  3.95029e-05 -6.66547e-05     -48.2941 
         400         1.92   5.3919e-06 -7.66723e-05     -48.2941 
         400      2.25333 -2.93381e-05 -8.46685e-05     -48.2941 
         400      2.61333 -6.30972e-05 -8.99639e-05     -48.2941 
         400            3 -9.03534e-05 -9.21259e-05     -48.2941 
         450            0 -1.10415e-19  5.15479e-27     -44.3399 
         450     0.013333 -7.41279e-05  6.24091e-08     -44.3399 
         450     0.053333 -1.93694e-06  9.64972e-07     -44.3399 
         450         0.12  2.87561e-05  4.53231e-06     -44.3399 
         450     0.213332 -1.02326e-05  1.26162e-05     -44.3399 
         450     0.333332 -9.43821e-05  2.58071e-05     -44.3399 
         450         0.48 -0.000173481  4.33116e-05     -44.3399 
         450     0.653331 -0.000214849  6.40724e-05     -44.3399 
         450     0.853332 -0.000210459  8.74681e-05     -44.3399 
         450         1.08 -0.000174196  0.000112607     -44.3399 
         450      1.33333  -0.00013915  0.000137534     -44.3399 
         450      1.61333 -0.000123967  0.000160186     -44.3399 
         450         1.92 -0.000115657  0.000179388     -44.3399 
         450      2.25333 -0.000107445  0.000193973     -44.3399 
         450      2.61333 -9.89121e-05  0.000202759     -44.3399 
         450            3 -9.10262e-05   0.00020497     -44.3399 
         500            0            0            0     -40.3848 
         500     0.013333 -8.33311e-05  4.38251e-08     -40.3848 
         500     0.053333 -3.32739e-05  7.07436e-07     -40.3848 
         500         0.12 -2.92833e-05  3.50805e-06     -40.3848 
         500     0.213332 -9.71338e-05  1.02724e-05     -40.3848 
         500     0.333332 -0.000210304  2.17908e-05     -40.3848 
         500         0.48 -0.000310646  3.71646e-05     -40.3848 
         500     0.653331 -0.000361497   5.4685e-05     -40.3848 
         500     0.853332 -0.000364319  7.29331e-05     -40.3848 
         500         1.08 -0.000343516  9.07137e-05     -40.3848 
         500      1.33333 -0.000322718  0.000106925     -40.3848 
         500      1.61333 -0.000302278  0.000121047     -40.3848 
         500         1.92 -0.000271775  0.000132843     -40.3848 
         500      2.25333 -0.000233639  0.000141704     -40.3848 
         500      2.61333 -0.000191463  0.000146672     -40.3848 
         500            3 -0.000148093  0.000147148     -40.3848 
         550            0           -0           -0     -36.4285 
         550     0.013333 -0.000121827 -1.09791e-07     -36.4285 
         550     0.053333 -0.000122953  -1.6476e-06     -36.4285 
         550         0.12 -5.82477e-05 -7.42674e-06     -36.4285 
         550     0.213332  9.32392e-05 -1.97634e-05     -36.4285 
         550     0.333332  0.000269916 -3.86624e-05     -36.4285 
         550         0.48  0.000397893 -6.22132e-05     -36.4285 
         550     0.653331  0.000448318 -8.86654e-05     -36.4285 
         550     0.853332  0.000427276 -0.000117611     -36.4285 
         550         1.08   0.00035049 -0.000149038     -36.4285 
         550      1.33333  0.000252606 -0.000181458     -36.4285 
         550      1.61333  0.000172843 -0.000212003     -36.4285 
         550         1.92  0.000108649 -0.000238458     -36.4286 
         550      2.25333  4.24396e-05 -0.000259484     -36.4286 
         550      2.61333 -2.84702e-05 -0.000273516     -36.4286 
         550            3 -9.64015e-05 -0.000279304     -36.4286 
         600            0           -0           -0     -32.4718 
         600     0.013333 -0.000127011  5.96179e-08     -32.4718 
         600     0.053333 -0.000189214  8.44537e-07     -32.4718 
         600         0.12 -0.000310463   3.4796e-06     -32.4718 
         600     0.213332 -0.000448472  8.24871e-06     -32.4718 
         600     0.333332 -0.000550887  1.41206e-05     -32.4718 
         600         0.48 -0.000595411  1.97493e-05     -32.4718 
         600     0.653331 -0.000597394  2.47195e-05     -32.4718 
         600     0.853332 -0.000574656  2.97861e-05     -32.4718 
         600         1.08 -0.000524938  3.62264e-05     -32.4718 
         600      1.33333 -0.000447461  4.44618e-05     -32.4718 
         600      1.61333 -0.000365897  5.32896e-05     -32.4718 
         600         1.92 -0.000296179  6.11474e-05     -32.4718 
         600      2.25333 -0.000227722  6.75462e-05     -32.4718 
         600      2.61333 -0.000157141  7.20576e-05     -32.4717 
         600            3 -9.10642e-05  7.43531e-05     -32.4717 
         650            0            0            0     -28.5138 
         650     0.013333 -8.58901e-05 -1.52776e-08     -28.5138 
         650     0.053333 -2.17006e-05 -1.98142e-07     -28.5138 
         650         0.12   5.2449e-05 -6.92979e-07     -28.5138 
         650     0.213332  0.000117293 -1.23903e-06     -28.5138 
         650     0.333332  0.000154414 -1.23925e-06     -28.5138 
         650         0.48  0.000165111 -2.60557e-07     -28.5138 
         650     0.653331  0.000163384  1.66212e-06     -28.5138 
         650     0.853332  0.000159633    4.103e-06     -28.5138 
         650         1.08  0.000150363  6.34194e-06     -28.5138 
         650      1.33333  0.000124712  7.63884e-06     -28.5138 
         650      1.61333  8.45781e-05  7.78723e-06     -28.5138 
         650         1.92  4.47862e-05  7.56609e-06     -28.5138 
         650      2.25333  6.34919e-06    6.987e-06     -28.5138 
         650      2.61333 -3.26438e-05  6.27826e-06     -28.5138 
         650            3 -7.09666e-05  5.52423e-06     -28.5138 
         700            0            0            0     -24.5558 
         700     0.013333 -0.000108993   1.1377e-09     -24.5558 
         700     0.053333 -0.000108702  1.07433e-08     -24.5558 
         700         0.12 -0.000119547  9.30678e-09     -24.5558 
         700     0.213332 -0.000129613  -8.9276e-08     -24.5558 
         700     0.333332 -0.000134811 -3.90293e-07     -24.5558 
         700         0.48 -0.000135626 -9.35838e-07     -24.5558 
         700     0.653331 -0.000135253 -1.69428e-06     -24.5558 
         700     0.853332 -0.000135628 -2.59852e-06     -24.5558 
         700         1.08 -0.000136184 -3.53783e-06     -24.5558 
         700      1.33333 -0.000133954 -4.33468e-06     -24.5558 
         700      1.61333 -0.000127077 -4.83729e-06     -24.5558 
         700         1.92 -0.000118528 -4.99164e-06     -24.5558 
         700      2.25333 -0.000110208  -5.0452e-06     -24.5558 
         700      2.61333 -0.000101848 -4.96143e-06     -24.5558 
         700            3 -9.29346e-05 -4.66643e-06     -24.5558 
         750            0           -0           -0     -20.5971 
         750     0.013333 -0.000104463   3.8896e-10     -20.5971 
         750     0.053333 -9.22813e-05  6.15314e-09     -20.5971 
         750         0.12 -8.89071e-05  3.03247e-08     -20.5971 
         750     0.213332 -8.82123e-05  8.83598e-08     -20.5971 
         750     0.333332 -8.87422e-05   1.8757e-07     -20.5971 
         750         0.48 -8.92458e-05  3.23554e-07     -20.5971 
         750     0.653331 -8.95626e-05  4.89379e-07     -20.5971 
         750     0.853332 -8.95686e-05  6.77064e-07     -20.5971 
         750         1.08 -8.92443e-05   8.9231e-07     -20.5971 
         750      1.33333 -8.87943e-05  1.11964e-06     -20.5971 
         750      1.61333 -8.86114e-05  1.33189e-06     -20.5971 
         750         1.92 -8.87725e-05  1.51207e-06     -20.5971 
         750      2.25333 -8.89154e-05  1.61571e-06     -20.5971 
         750      2.61333  -8.8921e-05  1.71277e-06     -20.5971 
         750            3 -8.89379e-05  1.77547e-06     -20.5971 
         800            0            0            0     -16.6375 
         800     0.013333 -0.000104978 -6.59868e-11     -16.6375 
         800     0.053333 -9.38814e-05 -1.09711e-09     -16.6375 
         800         0.12 -9.14575e-05 -5.05979e-09     -16.6375 
         800     0.213332  -9.1044e-05 -1.39234e-08     -16.6375 
         800     0.333332 -9.12588e-05  -2.8089e-08     -16.6375 
         800         0.48 -9.12992e-05 -4.66896e-08     -16.6375 
         800     0.653331 -9.13545e-05 -6.93999e-08     -16.6375 
         800     0.853332 -9.14491e-05 -9.26665e-08     -16.6375 
         800         1.08 -9.15641e-05 -1.25279e-07     -16.6375 
         800      1.33333 -9.16762e-05 -1.70466e-07     -16.6375 
         800      1.61333 -9.17479e-05 -1.62868e-07     -16.6375 
         800         1.92 -9.14082e-05 -2.67713e-07     -16.6375 
         800      2.25333 -9.10206e-05 -2.28971e-07     -16.6375 
         800      2.61333 -9.04503e-05 -2.34313e-07     -16.6375 
         800            3 -8.96458e-05 -3.64304e-07     -16.6375 
         850            0           -0           -0     -12.6772 
         850     0.013333 -0.000104964  4.33866e-11     -12.6772 
         850     0.053333 -9.37834e-05  4.72384e-10     -12.6772 
         850         0.12 -9.13099e-05  1.51601e-09     -12.6772 
         850     0.213332 -9.09228e-05   3.0574e-09     -12.6772 
         850     0.333332 -9.12145e-05  5.10835e-09     -12.6772 
         850         0.48 -9.13233e-05  7.76563e-09     -12.6772 
         850     0.653331 -9.14142e-05  1.09179e-08     -12.6772 
         850     0.853332 -9.15131e-05  1.60554e-08     -12.6772 
         850         1.08 -9.16197e-05  2.22418e-08     -12.6772 
         850      1.33333 -9.17131e-05  2.84161e-08     -12.6772 
         850      1.61333 -9.18186e-05  4.73333e-08     -12.6772 
         850         1.92 -9.16687e-05  3.84783e-08     -12.6772 
         850      2.25333 -9.13776e-05  9.60163e-08     -12.6772 
         850      2.61333 -9.06655e-05  1.39486e-07     -12.6772 
         850            3 -8.96395e-05  1.19833e-07     -12.6772 
         900            0           -0           -0     -8.71624 
         900     0.013333 -0.000104984  3.81379e-11     -8.71624 
         900     0.053333 -9.38041e-05  3.17093e-10     -8.71624 
         900         0.12 -9.13251e-05  7.33038e-10     -8.71624 
         900     0.213332 -9.09255e-05  1.07479e-09     -8.71624 
         900     0.333332 -9.11993e-05  1.52924e-09     -8.71624 
         900         0.48 -9.12899e-05  1.93903e-09     -8.71624 
         900     0.653331 -9.13677e-05 -1.75165e-10     -8.71624 
         900     0.853332 -9.14537e-05  5.41848e-09     -8.71624 
         900         1.08 -9.15687e-05  3.35442e-09     -8.71624 
         900      1.33333 -9.17419e-05  5.02581e-09     -8.71624 
         900      1.61333 -9.18335e-05 -6.89023e-08     -8.71624 
         900         1.92 -9.19759e-05  4.89781e-08     -8.71624 
         900      2.25333 -9.18894e-05 -9.65196e-08     -8.71624 
         900      2.61333 -9.13854e-05 -1.62733e-07     -8.71624 
         900            3 -9.02983e-05  1.05329e-07     -8.71624 
         950            0           -0           -0     -4.75472 
         950     0.013333 -0.000105006  2.16288e-11     -4.75472 
         950     0.053333 -9.38035e-05  2.02925e-10     -4.75472 
         950         0.12 -9.13087e-05  6.56066e-10     -4.75472 
         950     0.213332 -9.08932e-05  1.16478e-09     -4.75472 
         950     0.333332 -9.11525e-05  1.70507e-09     -4.75472 
         950         0.48 -9.12318e-05  2.36293e-09     -4.75472 
         950     0.653331 -9.12951e-05  3.06046e-09     -4.75472 
         950     0.853332 -9.13663e-05  5.02267e-09     -4.75472 
         950         1.08 -9.14599e-05  5.83081e-09     -4.75472 
         950      1.33333 -9.15905e-05  8.80639e-09     -4.75472 
         950      1.61333 -9.17883e-05  -2.9754e-09     -4.75472 
         950         1.92 -9.20109e-05   4.1731e-08     -4.75472 
         950      2.25333 -9.22148e-05   1.5272e-08     -4.75472 
         950      2.61333 -9.22302e-05  2.47289e-08     -4.75472 
         950            3   -9.176e-05  1.17333e-07     -4.75472 
        1000            0 -1.22398e-19 -2.85728e-26    -0.792493 
        1000     0.013333 -0.000105038 -3.33377e-11    -0.792493 
        1000     0.053333 -9.38562e-05   2.2757e-10    -0.792493 
        1000         0.12 -9.13831e-05  1.41713e-09    -0.792493 
        1000     0.213332   -9.098e-05  3.00103e-09    -0.792493 
        1000     0.333332 -9.12407e-05  4.34035e-09    -0.792493 
        1000         0.48 -9.13175e-05  5.97271e-09    -0.792493 
        1000     0.653331 -9.13763e-05  9.04873e-09    -0.792493 
        1000     0.853332 -9.14355e-05  1.01726e-08    -0.792493 
        1000         1.08 -9.15127e-05  1.58033e-08    -0.792493 
        1000      1.33333 -9.16169e-05  1.44048e-08    -0.792493 
        1000      1.61333 -9.17919e-05 -2.26416e-09    -0.792493 
        1000         1.92 -9.20542e-05  4.72957e-08    -0.792493 
        1000      2.25333 -9.23938e-05  5.33884e-08    -0.792493 
        1000      2.61333 -9.27221e-05  6.10101e-08    -0.792493 
        1000            3 -9.28823e-05  1.13942e-07    -0.792493 
