Variables = x, y, u, v, p

Zone, I=416, F=POINT
         -50            0  4.10117e-19  4.26602e-23      94.7816 
         -50     0.013333  0.000354895  7.59656e-08      94.7816 
         -50     0.053333  0.000327221  1.51937e-07      94.7816 
         -50         0.12  0.000321141  6.41104e-08      94.7816 
         -50     0.213332   0.00032227 -2.41794e-07      94.7816 
         -50     0.333332   0.00032509 -9.11035e-07      94.7815 
         -50         0.48  0.000325015 -1.99369e-06      94.7813 
         -50     0.653331  0.000321478 -2.85013e-06       94.781 
         -50     0.853332  0.000315832 -3.31211e-06      94.7805 
         -50         1.08  0.000312485 -3.96925e-06      94.7798 
         -50      1.33333  0.000310993 -4.22072e-06      94.7789 
         -50      1.61333  0.000310971 -2.96366e-06      94.7776 
         -50         1.92  0.000312341  -1.1445e-06      94.7759 
         -50      2.25333  0.000317719   2.3941e-06      94.7738 
         -50      2.61333  0.000325253  7.37874e-06      94.7711 
         -50            3  0.000328138  1.10219e-05      94.7678 
         -25            0           -0           -0      90.9623 
         -25     0.013333  0.000262847  2.90378e-08      90.9623 
         -25     0.053333  0.000251099  4.02193e-08      90.9623 
         -25         0.12  0.000255538 -3.10038e-08      90.9623 
         -25     0.213332  0.000261847 -1.34965e-07      90.9623 
         -25     0.333332  0.000265511 -1.13775e-07      90.9623 
         -25         0.48  0.000265183  6.10211e-08      90.9622 
         -25     0.653331    0.0002621  2.55499e-07      90.9621 
         -25     0.853332  0.000256751  4.97633e-07      90.9619 
         -25         1.08  0.000250874   7.6004e-07      90.9616 
         -25      1.33333  0.000244315  1.09467e-06      90.9613 
         -25      1.61333  0.000235045  1.44739e-06      90.9608 
         -25         1.92  0.000221645  1.63585e-06      90.9601 
         -25      2.25333  0.000215563  1.79804e-06      90.9593 
         -25      2.61333  0.000210986 -6.67389e-07      90.9583 
         -25            3   0.00020128 -5.67628e-06       90.957 
           0            0            0            0      87.8325 
           0     0.013333  0.000685946 -0.000433642      87.8364 
           0     0.053333  0.000452101 -0.000229486      87.8422 
           0         0.12  0.000360643 -0.000159014      87.8488 
           0     0.213332   0.00030463  -0.00012342      87.8559 
           0     0.333332  0.000267144 -9.93058e-05      87.8631 
           0         0.48   0.00024241 -7.94342e-05      87.8704 
           0     0.653331  0.000231079 -6.25304e-05      87.8776 
           0     0.853332  0.000227458 -4.77268e-05      87.8846 
           0         1.08  0.000223893 -3.47487e-05      87.8914 
           0      1.33333  0.000217264 -2.36482e-05      87.8979 
           0      1.61333  0.000209473 -1.45316e-05       87.904 
           0         1.92  0.000203527  -7.2703e-06      87.9098 
           0      2.25333  0.000200026 -1.77041e-06      87.9152 
           0      2.61333  0.000198887  2.29276e-06      87.9201 
           0            3  0.000196307  2.16048e-06      87.9246 
          20            0            0            0      85.8927 
          20     0.013333   0.00021977  4.61174e-08      85.8927 
          20     0.053333  0.000238047  5.21065e-07      85.8927 
          20         0.12  0.000250992   2.4125e-06      85.8927 
          20     0.213332  0.000237183   6.7533e-06      85.8927 
          20     0.333332  0.000212022  1.37495e-05      85.8927 
          20         0.48  0.000193453  2.26976e-05      85.8926 
          20     0.653331  0.000182693  3.25511e-05      85.8926 
          20     0.853332  0.000179315  4.26331e-05      85.8925 
          20         1.08  0.000182649   5.2219e-05      85.8923 
          20      1.33333  0.000183546   5.9976e-05      85.8921 
          20      1.61333  0.000181924    6.504e-05      85.8919 
          20         1.92  0.000178795  6.66419e-05      85.8916 
          20      2.25333  0.000176311  6.52417e-05      85.8911 
          20      2.61333  0.000177057  6.16409e-05      85.8906 
          20            3   0.00017947  5.54147e-05        85.89 
          40            0            0            0      83.9085 
          40     0.013333   0.00019553  4.14121e-08      83.9085 
          40     0.053333  0.000188898  5.36559e-07      83.9085 
          40         0.12  0.000174707  2.31192e-06      83.9085 
          40     0.213332  0.000145267  5.89848e-06      83.9085 
          40     0.333332  0.000115946  1.10891e-05      83.9085 
          40         0.48    9.891e-05  1.73693e-05      83.9085 
          40     0.653331  9.82579e-05  2.45106e-05      83.9084 
          40     0.853332  0.000111527  3.23459e-05      83.9084 
          40         1.08  0.000128816  4.00803e-05      83.9084 
          40      1.33333  0.000142842  4.65615e-05      83.9083 
          40      1.61333  0.000155534  5.09531e-05      83.9082 
          40         1.92  0.000168162   5.3076e-05      83.9081 
          40      2.25333  0.000176192  5.22077e-05      83.9079 
          40      2.61333  0.000182285  4.95473e-05      83.9077 
          40            3  0.000191891  4.72243e-05      83.9074 
          60            0           -0           -0      82.0238 
          60     0.013333  0.000193774  1.55443e-08      82.0238 
          60     0.053333  0.000206837   2.0028e-07      82.0238 
          60         0.12  0.000225391  9.67413e-07      82.0238 
          60     0.213332  0.000229054  2.84551e-06      82.0238 
          60     0.333332  0.000218426  6.16968e-06      82.0237 
          60         0.48  0.000203975  1.09418e-05      82.0237 
          60     0.653331  0.000196437  1.69718e-05      82.0237 
          60     0.853332  0.000197779  2.38904e-05      82.0237 
          60         1.08  0.000199224  3.09309e-05      82.0237 
          60      1.33333  0.000193357   3.7101e-05      82.0236 
          60      1.61333  0.000184607  4.18103e-05      82.0236 
          60         1.92  0.000176072  4.46643e-05      82.0235 
          60      2.25333  0.000172466  4.52633e-05      82.0234 
          60      2.61333  0.000169407  4.34262e-05      82.0233 
          60            3  0.000160054  3.90809e-05      82.0231 
          80            0           -0           -0      80.1969 
          80     0.013333   0.00018878 -2.01161e-08      80.1969 
          80     0.053333  0.000208971 -3.01637e-07      80.1969 
          80         0.12  0.000253448 -1.17652e-06      80.1969 
          80     0.213332  0.000297208 -2.52237e-06      80.1969 
          80     0.333332  0.000323406 -3.73992e-06      80.1969 
          80         0.48  0.000330349 -4.35028e-06      80.1969 
          80     0.653331  0.000324717 -4.41847e-06      80.1969 
          80     0.853332  0.000307581 -4.40874e-06      80.1968 
          80         1.08  0.000279613 -4.52297e-06      80.1968 
          80      1.33333  0.000247315 -4.66608e-06      80.1968 
          80      1.61333    0.0002154 -4.66662e-06      80.1968 
          80         1.92  0.000185255 -4.33915e-06      80.1967 
          80      2.25333  0.000157599 -4.20443e-06      80.1966 
          80      2.61333   0.00013337 -4.05436e-06      80.1966 
          80            3  0.000117417 -3.12203e-06      80.1965 
         100            0            0            0      78.4064 
         100     0.013333  0.000173368   -2.237e-08      78.4064 
         100     0.053333  0.000162255 -3.42802e-07      78.4064 
         100         0.12  0.000172092 -1.47619e-06      78.4064 
         100     0.213332  0.000194118 -3.70575e-06      78.4064 
         100     0.333332  0.000216663 -6.89082e-06      78.4064 
         100         0.48  0.000230677 -1.07852e-05      78.4064 
         100     0.653331  0.000232752 -1.53754e-05      78.4064 
         100     0.853332  0.000221049 -2.07581e-05      78.4064 
         100         1.08  0.000201837 -2.65147e-05      78.4064 
         100      1.33333  0.000185339 -3.18033e-05      78.4064 
         100      1.61333  0.000172019 -3.59718e-05      78.4064 
         100         1.92   0.00016095 -3.87224e-05      78.4063 
         100      2.25333  0.000153733 -3.96148e-05      78.4063 
         100      2.61333  0.000149744 -3.89165e-05      78.4062 
         100            3  0.000146838 -3.72782e-05      78.4062 
         150            0           -0           -0      74.0161 
         150     0.013333  0.000185937  -3.3061e-08      74.0161 
         150     0.053333  0.000218263 -4.66336e-07      74.0161 
         150         0.12  0.000281923 -1.85013e-06      74.0161 
         150     0.213332   0.00034386 -4.08405e-06      74.0161 
         150     0.333332  0.000376801 -6.25364e-06      74.0161 
         150         0.48  0.000377483 -7.49669e-06      74.0161 
         150     0.653331  0.000360253 -7.72833e-06      74.0161 
         150     0.853332  0.000334552 -7.41694e-06      74.0161 
         150         1.08  0.000303821 -6.75772e-06      74.0161 
         150      1.33333  0.000269989 -5.73211e-06       74.016 
         150      1.61333  0.000231888 -4.37073e-06       74.016 
         150         1.92  0.000190214 -2.78625e-06       74.016 
         150      2.25333  0.000151912  -1.1465e-06       74.016 
         150      2.61333  0.000122136  4.47968e-07       74.016 
         150            3  0.000101544  1.49499e-06       74.016 
         200            0  4.14796e-19  1.96122e-25      69.6805 
         200     0.013333  0.000202435 -4.52993e-08      69.6805 
         200     0.053333  0.000282347 -6.04042e-07      69.6805 
         200         0.12  0.000405729 -2.22227e-06      69.6805 
         200     0.213332  0.000517159 -4.41244e-06      69.6805 
         200     0.333332  0.000578652  -5.7642e-06      69.6805 
         200         0.48  0.000592362 -5.24392e-06      69.6805 
         200     0.653331  0.000581558 -3.02201e-06      69.6805 
         200     0.853332  0.000554008 -2.93094e-07      69.6805 
         200         1.08  0.000502164   1.7837e-06      69.6805 
         200      1.33333  0.000430738  2.87547e-06      69.6805 
         200      1.61333  0.000353635  3.54965e-06      69.6805 
         200         1.92  0.000271867  4.04087e-06      69.6805 
         200      2.25333  0.000189917  4.12037e-06      69.6805 
         200      2.61333  0.000117273  3.96777e-06      69.6805 
         200            3  6.41184e-05  3.57925e-06      69.6805 
         250            0           -0           -0      65.3644 
         250     0.013333  0.000184616 -1.07582e-08      65.3644 
         250     0.053333  0.000211545 -1.24121e-07      65.3644 
         250         0.12  0.000254751 -3.22119e-07      65.3644 
         250     0.213332   0.00028581 -1.76357e-07      65.3644 
         250     0.333332  0.000294247   8.8931e-07      65.3644 
         250         0.48  0.000287677  3.07494e-06      65.3644 
         250     0.653331  0.000279087  6.08542e-06      65.3644 
         250     0.853332  0.000270613  9.26903e-06      65.3644 
         250         1.08  0.000254651  1.18996e-05      65.3644 
         250      1.33333  0.000230725  1.36479e-05      65.3644 
         250      1.61333  0.000207834  1.48143e-05      65.3644 
         250         1.92  0.000186825   1.5629e-05      65.3644 
         250      2.25333  0.000166198  1.57404e-05      65.3644 
         250      2.61333  0.000147444  1.52883e-05      65.3644 
         250            3  0.000132715  1.43028e-05      65.3644 
         300            0           -0           -0      61.0557 
         300     0.013333  0.000178766 -5.02945e-08      61.0557 
         300     0.053333  0.000203741 -7.37824e-07      61.0557 
         300         0.12  0.000276376 -3.19691e-06      61.0557 
         300     0.213332  0.000371955 -8.03902e-06      61.0557 
         300     0.333332  0.000449308 -1.46358e-05      61.0557 
         300         0.48  0.000482704 -2.17041e-05      61.0557 
         300     0.653331  0.000477452 -2.84443e-05      61.0557 
         300     0.853332  0.000448835 -3.48304e-05      61.0557 
         300         1.08  0.000408142 -4.09071e-05      61.0557 
         300      1.33333  0.000363279 -4.64012e-05      61.0557 
         300      1.61333  0.000316978 -5.08586e-05      61.0557 
         300         1.92  0.000267483 -5.39273e-05      61.0557 
         300      2.25333  0.000216657 -5.52904e-05      61.0557 
         300      2.61333  0.000168667  -5.4733e-05      61.0557 
         300            3  0.000128726 -5.23654e-05      61.0557 
         350            0           -0           -0      56.7499 
         350     0.013333  0.000115521 -6.09599e-08      56.7499 
         350     0.053333 -1.73083e-05 -9.92861e-07      56.7499 
         350         0.12 -0.000115598 -4.95993e-06      56.7499 
         350     0.213332 -0.000122187 -1.45994e-05      56.7499 
         350     0.333332 -5.52286e-05 -3.11904e-05      56.7499 
         350         0.48   1.9092e-05   -5.395e-05      56.7499 
         350     0.653331  5.31331e-05 -8.12179e-05      56.7499 
         350     0.853332  4.15093e-05 -0.000111359      56.7499 
         350         1.08  1.66904e-05 -0.000142166      56.7499 
         350      1.33333  1.85109e-05  -0.00017079      56.7499 
         350      1.61333  4.66321e-05 -0.000195344      56.7499 
         350         1.92  7.87989e-05 -0.000214796      56.7499 
         350      2.25333  0.000111471 -0.000227662      56.7499 
         350      2.61333  0.000143921  -0.00023268      56.7499 
         350            3   0.00017339 -0.000229441      56.7499 
         400            0           -0           -0      52.4456 
         400     0.013333  0.000127332  5.58907e-09      52.4456 
         400     0.053333   6.6852e-06  8.10541e-09      52.4456 
         400         0.12 -0.000120042 -4.45761e-07      52.4456 
         400     0.213332 -0.000201943 -2.62343e-06      52.4456 
         400     0.333332  -0.00021903 -7.89592e-06      52.4456 
         400         0.48 -0.000197394 -1.66819e-05      52.4456 
         400     0.653331 -0.000173535 -2.83365e-05      52.4456 
         400     0.853332 -0.000161215 -4.15867e-05      52.4456 
         400         1.08  -0.00014338 -5.46904e-05      52.4456 
         400      1.33333 -9.97043e-05 -6.60397e-05      52.4456 
         400      1.61333 -4.01685e-05 -7.52882e-05      52.4457 
         400         1.92  1.91889e-05 -8.27175e-05      52.4457 
         400      2.25333  7.94996e-05 -8.77408e-05      52.4457 
         400      2.61333  0.000138701 -8.99372e-05      52.4457 
         400            3  0.000189533 -8.91434e-05      52.4457 
         450            0  1.99091e-19  2.90119e-27      48.1427 
         450     0.013333  0.000179428  8.90594e-09      48.1427 
         450     0.053333  0.000190496   1.3749e-07      48.1427 
         450         0.12  0.000210502  6.49344e-07      48.1427 
         450     0.213332  0.000222239  1.84342e-06      48.1427 
         450     0.333332  0.000222708   3.9112e-06      48.1427 
         450         0.48  0.000215697   6.8931e-06      48.1427 
         450     0.653331  0.000207979  1.07464e-05      48.1427 
         450     0.853332  0.000204373  1.54108e-05      48.1427 
         450         1.08  0.000206245  2.07877e-05      48.1427 
         450      1.33333  0.000209147  2.65239e-05      48.1427 
         450      1.61333  0.000206039  3.20112e-05      48.1427 
         450         1.92  0.000197338  3.68344e-05      48.1427 
         450      2.25333  0.000186674  4.05296e-05      48.1427 
         450      2.61333  0.000175641  4.29812e-05      48.1427 
         450            3  0.000165228   4.4068e-05      48.1427 
         500            0            0            0      43.8405 
         500     0.013333   0.00017446  8.16389e-09      43.8405 
         500     0.053333  0.000171286  1.30707e-07      43.8405 
         500         0.12  0.000169245  6.49283e-07      43.8405 
         500     0.213332   0.00015307  1.93813e-06      43.8405 
         500     0.333332  0.000123942  4.25404e-06      43.8405 
         500         0.48  9.17611e-05  7.54855e-06      43.8405 
         500     0.653331  6.67556e-05  1.15185e-05      43.8405 
         500     0.853332  5.24556e-05    1.586e-05      43.8405 
         500         1.08  4.89725e-05   2.0449e-05      43.8405 
         500      1.33333  5.52192e-05  2.52219e-05      43.8405 
         500      1.61333   6.7506e-05  2.99703e-05      43.8405 
         500         1.92  8.22051e-05  3.42959e-05      43.8405 
         500      2.25333  9.91204e-05  3.79672e-05      43.8405 
         500      2.61333  0.000117475  4.05568e-05      43.8405 
         500            3  0.000135014  4.17766e-05      43.8405 
         550            0           -0           -0      39.5393 
         550     0.013333  0.000103078 -4.57793e-09      39.5393 
         550     0.053333 -7.76262e-05 -1.63533e-07      39.5393 
         550         0.12 -0.000267259 -1.37822e-06      39.5393 
         550     0.213332 -0.000378913 -5.73837e-06      39.5393 
         550     0.333332 -0.000376749 -1.55609e-05      39.5393 
         550         0.48 -0.000302141 -3.17094e-05      39.5393 
         550     0.653331 -0.000221343 -5.31303e-05      39.5393 
         550     0.853332 -0.000168371 -7.77792e-05      39.5393 
         550         1.08  -0.00013352 -0.000103506      39.5393 
         550      1.33333 -9.37384e-05 -0.000128608      39.5393 
         550      1.61333 -4.39726e-05 -0.000152085      39.5393 
         550         1.92  9.24041e-06 -0.000173189      39.5393 
         550      2.25333  6.47143e-05 -0.000190595      39.5393 
         550      2.61333  0.000120799 -0.000203003      39.5393 
         550            3  0.000173165 -0.000209397      39.5393 
         600            0           -0           -0      35.2394 
         600     0.013333  0.000259282  1.78848e-08      35.2394 
         600     0.053333  0.000472681  3.81222e-07      35.2394 
         600         0.12  0.000719824   2.4624e-06      35.2394 
         600     0.213332  0.000878708  8.88564e-06      35.2394 
         600     0.333332  0.000907986  2.21555e-05      35.2394 
         600         0.48  0.000855861  4.29601e-05      35.2394 
         600     0.653331  0.000798593  7.01364e-05      35.2394 
         600     0.853332  0.000775682    0.0001017      35.2394 
         600         1.08  0.000770426  0.000135072      35.2394 
         600      1.33333  0.000733867   0.00016713      35.2394 
         600      1.61333  0.000648025  0.000195621      35.2394 
         600         1.92  0.000544185  0.000220268      35.2394 
         600      2.25333  0.000435098   0.00023991      35.2394 
         600      2.61333  0.000322967  0.000253417      35.2394 
         600            3  0.000212953  0.000259689      35.2394 
         650            0            0            0      30.9397 
         650     0.013333  0.000154877 -5.46839e-08      30.9397 
         650     0.053333  0.000122407 -8.47858e-07      30.9397 
         650         0.12   0.00014088 -3.98742e-06      30.9397 
         650     0.213332  0.000221072 -1.10538e-05      30.9397 
         650     0.333332  0.000324462 -2.22962e-05      30.9397 
         650         0.48  0.000394517 -3.64322e-05      30.9397 
         650     0.653331  0.000406986 -5.18797e-05      30.9397 
         650     0.853332   0.00037245 -6.77727e-05      30.9397 
         650         1.08  0.000316332 -8.36177e-05      30.9397 
         650      1.33333  0.000269221 -9.83106e-05      30.9397 
         650      1.61333  0.000247428 -0.000110583      30.9397 
         650         1.92  0.000233608 -0.000119936      30.9397 
         650      2.25333  0.000215329   -0.0001266      30.9397 
         650      2.61333  0.000193028 -0.000130055      30.9397 
         650            3  0.000171183 -0.000129615      30.9397 
         700            0            0            0      26.6406 
         700     0.013333  0.000227932  1.32079e-07      26.6406 
         700     0.053333  0.000323489  2.05335e-06      26.6406 
         700         0.12   0.00033729  9.74668e-06      26.6406 
         700     0.213332  0.000182256  2.75333e-05      26.6406 
         700     0.333332 -8.60836e-05  5.71429e-05      26.6406 
         700         0.48 -0.000336717  9.67097e-05      26.6406 
         700     0.653331  -0.00047799  0.000142851      26.6406 
         700     0.853332 -0.000497141  0.000193131      26.6406 
         700         1.08 -0.000428398  0.000246051      26.6406 
         700      1.33333 -0.000328602  0.000299393      26.6406 
         700      1.61333  -0.00024629  0.000349873      26.6406 
         700         1.92 -0.000181315  0.000395347      26.6406 
         700      2.25333 -0.000112039  0.000433348      26.6406 
         700      2.61333 -3.30019e-05  0.000461748      26.6406 
         700            3  4.90247e-05  0.000478416      26.6406 
         750            0           -0           -0      22.3421 
         750     0.013333  3.02247e-05 -7.78332e-08      22.3421 
         750     0.053333 -0.000318379   -1.328e-06      22.3421 
         750         0.12 -0.000655625  -7.0706e-06      22.3421 
         750     0.213332 -0.000803239 -2.23339e-05      22.3421 
         750     0.333332 -0.000725449 -5.11064e-05      22.3421 
         750         0.48 -0.000536576 -9.37501e-05      22.3421 
         750     0.653331  -0.00037725 -0.000147517      22.3421 
         750     0.853332  -0.00031529 -0.000208928      22.3421 
         750         1.08 -0.000330262 -0.000274475      22.3421 
         750      1.33333 -0.000343688 -0.000339873      22.3421 
         750      1.61333 -0.000295028 -0.000400714      22.3421 
         750         1.92 -0.000206285 -0.000454881      22.3421 
         750      2.25333 -0.000111743 -0.000500844      22.3421 
         750      2.61333 -1.88083e-05 -0.000536036      22.3421 
         750            3  7.53488e-05 -0.000557649      22.3421 
         800            0            0            0       18.045 
         800     0.013333  0.000295179   -5.986e-08       18.045 
         800     0.053333  0.000627859 -7.55812e-07       18.045 
         800         0.12   0.00108352 -2.45738e-06       18.045 
         800     0.213332   0.00149402 -3.49292e-06       18.045 
         800     0.333332   0.00173167 -3.70216e-07       18.045 
         800         0.48   0.00178627  9.77254e-06       18.045 
         800     0.653331   0.00174182  2.72764e-05       18.045 
         800     0.853332   0.00167965  5.01868e-05       18.045 
         800         1.08   0.00161368  7.52393e-05       18.045 
         800      1.33333   0.00150193   9.8847e-05       18.045 
         800      1.61333   0.00132154  0.000118772       18.045 
         800         1.92   0.00111072   0.00013556       18.045 
         800      2.25333  0.000891511  0.000149617       18.045 
         800      2.61333  0.000662847  0.000160583       18.045 
         800            3  0.000425484  0.000167588       18.045 
         850            0           -0           -0      13.7473 
         850     0.013333   0.00017641   8.6062e-08      13.7473 
         850     0.053333  0.000156418  1.27533e-06      13.7473 
         850         0.12  8.30256e-05  5.65827e-06      13.7473 
         850     0.213332 -5.49415e-05  1.48331e-05      13.7473 
         850     0.333332 -0.000207431  2.86743e-05      13.7473 
         850         0.48 -0.000319078   4.5751e-05      13.7473 
         850     0.653331 -0.000370653  6.48581e-05      13.7473 
         850     0.853332 -0.000369212  8.59611e-05      13.7473 
         850         1.08 -0.000319019  0.000109806      13.7473 
         850      1.33333 -0.000228029  0.000136469      13.7473 
         850      1.61333  -0.00012885  0.000164302      13.7473 
         850         1.92 -5.51583e-05  0.000190722      13.7473 
         850      2.25333  4.82583e-06   0.00021411      13.7473 
         850      2.61333  6.42679e-05  0.000233251      13.7473 
         850            3  0.000124159  0.000247022      13.7473 
         900            0           -0           -0      9.45094 
         900     0.013333  0.000170305 -5.62742e-08      9.45094 
         900     0.053333  0.000178216 -8.46632e-07      9.45094 
         900         0.12  0.000246526 -3.82837e-06      9.45094 
         900     0.213332  0.000368702 -1.01981e-05      9.45094 
         900     0.333332  0.000498765 -1.98461e-05      9.45094 
         900         0.48  0.000584368 -3.14589e-05      9.45094 
         900     0.653331  0.000608636 -4.37383e-05      9.45094 
         900     0.853332  0.000583973 -5.63351e-05      9.45094 
         900         1.08  0.000526623 -6.95706e-05      9.45094 
         900      1.33333  0.000455141 -8.32454e-05      9.45094 
         900      1.61333   0.00039535 -9.60654e-05      9.45094 
         900         1.92  0.000355541 -0.000106986      9.45094 
         900      2.25333  0.000317201 -0.000115641      9.45094 
         900      2.61333  0.000272442 -0.000121944      9.45094 
         900            3   0.00022454 -0.000125547      9.45093 
         950            0           -0           -0      5.15487 
         950     0.013333  0.000232386  2.51668e-08      5.15487 
         950     0.053333  0.000375787  4.36756e-07      5.15487 
         950         0.12  0.000540549  2.38009e-06      5.15487 
         950     0.213332  0.000638596  7.70766e-06      5.15487 
         950     0.333332   0.00063979  1.80829e-05      5.15487 
         950         0.48  0.000577205    3.397e-05      5.15487 
         950     0.653331  0.000508334  5.46215e-05      5.15487 
         950     0.853332  0.000470767  7.88746e-05      5.15487 
         950         1.08  0.000468928  0.000105551      5.15487 
         950      1.33333  0.000477237  0.000133078      5.15487 
         950      1.61333  0.000461731  0.000159444      5.15487 
         950         1.92  0.000416952  0.000183395      5.15487 
         950      2.25333   0.00036395  0.000204627      5.15486 
         950      2.61333   0.00031068  0.000222277      5.15486 
         950            3  0.000255063  0.000235166      5.15486 
        1000            0   1.9507e-19  2.11804e-24     0.859061 
        1000     0.013333  0.000167258  4.12685e-08     0.859061 
        1000     0.053333  0.000139399   5.3835e-07     0.859061 
        1000         0.12  9.48087e-05  2.28583e-06     0.859061 
        1000     0.213332  2.94153e-05  5.86968e-06     0.859061 
        1000     0.333332 -3.86503e-05  1.12765e-05     0.859061 
        1000         0.48 -9.09515e-05  1.78461e-05      0.85906 
        1000     0.653331 -0.000120627  2.51087e-05      0.85906 
        1000     0.853332 -0.000130507  3.30688e-05      0.85906 
        1000         1.08  -0.00012142  4.20333e-05      0.85906 
        1000      1.33333 -9.08514e-05  5.23423e-05      0.85906 
        1000      1.61333 -4.44842e-05  6.37614e-05      0.85906 
        1000         1.92 -3.38181e-07  7.53796e-05      0.85906 
        1000      2.25333  3.68114e-05   8.6199e-05     0.859061 
        1000      2.61333  7.14593e-05  9.56403e-05     0.859062 
        1000            3  0.000107607  0.000103317     0.859064 
