Variables = x, y, u, v, p

Zone, I=416, F=POINT
         -50            0 -3.30179e-19 -4.05251e-23     -92.5664 
         -50     0.013333 -0.000292594 -7.02737e-08     -92.5664 
         -50     0.053333 -0.000277655 -1.47631e-07     -92.5664 
         -50         0.12 -0.000284361 -1.85428e-07     -92.5664 
         -50     0.213332 -0.000292911 -3.22957e-07     -92.5664 
         -50     0.333332 -0.000296218 -1.12566e-06     -92.5663 
         -50         0.48 -0.000295436 -1.95445e-06     -92.5661 
         -50     0.653331 -0.000291525 -2.52149e-06     -92.5658 
         -50     0.853332 -0.000283824 -3.85716e-06     -92.5653 
         -50         1.08 -0.000274125 -4.58294e-06     -92.5647 
         -50      1.33333 -0.000262964 -5.69069e-06     -92.5638 
         -50      1.61333 -0.000251342 -6.33162e-06     -92.5625 
         -50         1.92  -0.00024134 -9.68267e-06     -92.5609 
         -50      2.25333 -0.000242368 -1.20829e-05     -92.5588 
         -50      2.61333 -0.000247232 -1.18701e-05     -92.5561 
         -50            3 -0.000248423 -1.20291e-05     -92.5529 
         -25            0           -0           -0     -88.8427 
         -25     0.013333 -0.000213094 -3.07952e-08     -88.8427 
         -25     0.053333 -0.000199251 -1.06466e-07     -88.8427 
         -25         0.12 -0.000197948  -2.8919e-07     -88.8427 
         -25     0.213332 -0.000195371 -7.18712e-07     -88.8427 
         -25     0.333332 -0.000187719 -1.55282e-06     -88.8426 
         -25         0.48 -0.000178076 -2.87548e-06     -88.8426 
         -25     0.653331 -0.000171593 -4.66692e-06     -88.8425 
         -25     0.853332 -0.000170827 -6.75184e-06     -88.8423 
         -25         1.08 -0.000174288  -9.1677e-06      -88.842 
         -25      1.33333 -0.000178199 -1.14687e-05     -88.8417 
         -25      1.61333 -0.000181084 -1.32737e-05     -88.8412 
         -25         1.92 -0.000180655 -1.49113e-05     -88.8406 
         -25      2.25333 -0.000183683 -1.55012e-05     -88.8398 
         -25      2.61333 -0.000188126 -1.51835e-05     -88.8388 
         -25            3 -0.000187526 -1.43235e-05     -88.8375 
           0            0            0            0     -85.7916 
           0     0.013333 -0.000552019  0.000351665     -85.7951 
           0     0.053333 -0.000368236  0.000185512     -85.8008 
           0         0.12 -0.000297708  0.000128622     -85.8073 
           0     0.213332 -0.000249314     9.94e-05     -85.8141 
           0     0.333332 -0.000210505  7.91077e-05     -85.8212 
           0         0.48 -0.000182821  6.14691e-05     -85.8282 
           0     0.653331  -0.00016969  4.56756e-05     -85.8352 
           0     0.853332 -0.000166295   3.1236e-05     -85.8421 
           0         1.08 -0.000164013  1.83426e-05     -85.8487 
           0      1.33333 -0.000160022  7.31662e-06      -85.855 
           0      1.61333 -0.000155958 -1.57417e-06      -85.861 
           0         1.92 -0.000154077 -8.22378e-06     -85.8666 
           0      2.25333 -0.000158815 -1.31125e-05     -85.8718 
           0      2.61333 -0.000167189 -1.63288e-05     -85.8766 
           0            3 -0.000172655 -1.82015e-05      -85.881 
          20            0            0            0     -83.9001 
          20     0.013333 -0.000178461 -1.76791e-08     -83.9001 
          20     0.053333 -0.000198165 -1.02458e-07     -83.9001 
          20         0.12 -0.000231889 -5.00903e-07     -83.9001 
          20     0.213332 -0.000256354 -1.68215e-06     -83.9001 
          20     0.333332 -0.000266123 -4.02585e-06        -83.9 
          20         0.48  -0.00026684 -7.51253e-06        -83.9 
          20     0.653331  -0.00026389 -1.18557e-05     -83.8999 
          20     0.853332 -0.000257895 -1.67585e-05     -83.8999 
          20         1.08 -0.000243279 -2.16291e-05     -83.8997 
          20      1.33333 -0.000219439 -2.56266e-05     -83.8995 
          20      1.61333 -0.000192877 -2.84939e-05     -83.8993 
          20         1.92 -0.000165565 -2.95819e-05      -83.899 
          20      2.25333 -0.000144673 -2.94517e-05     -83.8986 
          20      2.61333 -0.000130305 -2.74114e-05      -83.898 
          20            3 -0.000116954 -2.17837e-05     -83.8974 
          40            0            0            0     -81.9658 
          40     0.013333 -0.000158227 -3.81911e-09     -81.9658 
          40     0.053333 -0.000156967  7.12147e-10     -81.9658 
          40         0.12 -0.000167228 -2.91204e-08     -81.9658 
          40     0.213332  -0.00017551 -2.43483e-07     -81.9658 
          40     0.333332 -0.000177761  -8.0073e-07     -81.9658 
          40         0.48 -0.000176726 -1.76219e-06     -81.9657 
          40     0.653331 -0.000176048 -3.04834e-06     -81.9657 
          40     0.853332 -0.000174295 -4.35033e-06     -81.9657 
          40         1.08 -0.000168051 -5.38483e-06     -81.9656 
          40      1.33333 -0.000157969 -6.06389e-06     -81.9656 
          40      1.61333 -0.000146659 -6.49136e-06     -81.9655 
          40         1.92 -0.000135969 -6.57448e-06     -81.9653 
          40      2.25333 -0.000126626 -6.50873e-06     -81.9652 
          40      2.61333 -0.000122736 -6.42817e-06      -81.965 
          40            3 -0.000125575  -5.9366e-06     -81.9647 
          60            0           -0           -0     -80.1285 
          60     0.013333 -0.000145494  1.31161e-08     -80.1285 
          60     0.053333 -0.000132048  2.47454e-07     -80.1285 
          60         0.12 -0.000140006   1.1732e-06     -80.1285 
          60     0.213332 -0.000162772  3.17058e-06     -80.1285 
          60     0.333332  -0.00018652  6.15571e-06     -80.1285 
          60         0.48 -0.000200011  9.70929e-06     -80.1285 
          60     0.653331 -0.000201495  1.34494e-05     -80.1285 
          60     0.853332 -0.000195537  1.70456e-05     -80.1285 
          60         1.08 -0.000186724  2.02337e-05     -80.1284 
          60      1.33333 -0.000175207  2.28893e-05     -80.1284 
          60      1.61333 -0.000161225  2.47783e-05     -80.1283 
          60         1.92 -0.000144267  2.55779e-05     -80.1283 
          60      2.25333 -0.000128318  2.52149e-05     -80.1282 
          60      2.61333 -0.000118145  2.34713e-05     -80.1281 
          60            3 -0.000117542  1.92285e-05     -80.1279 
          80            0           -0           -0     -78.3477 
          80     0.013333 -0.000139232  1.65782e-08     -78.3477 
          80     0.053333 -0.000118407    2.705e-07     -78.3477 
          80         0.12 -0.000113643  1.18973e-06     -78.3477 
          80     0.213332 -0.000119537  3.02509e-06     -78.3477 
          80     0.333332 -0.000127068  5.68535e-06     -78.3477 
          80         0.48 -0.000129748   9.0419e-06     -78.3477 
          80     0.653331  -0.00012439  1.31632e-05     -78.3477 
          80     0.853332 -0.000112271  1.79444e-05     -78.3477 
          80         1.08 -0.000105097   2.2587e-05     -78.3477 
          80      1.33333 -0.000108176  2.63151e-05     -78.3477 
          80      1.61333 -0.000113408  2.89899e-05     -78.3476 
          80         1.92 -0.000117895  3.04615e-05     -78.3476 
          80      2.25333 -0.000119201  3.05787e-05     -78.3475 
          80      2.61333  -0.00011952  2.92831e-05     -78.3474 
          80            3 -0.000122061  2.69705e-05     -78.3473 
         100            0            0            0     -76.6026 
         100     0.013333 -0.000150635  -2.9007e-09     -76.6026 
         100     0.053333 -0.000158923 -5.87303e-08     -76.6026 
         100         0.12 -0.000172529 -4.54076e-07     -76.6026 
         100     0.213332 -0.000171725 -1.74493e-06     -76.6026 
         100     0.333332  -0.00015695 -4.30632e-06     -76.6026 
         100         0.48 -0.000141013 -7.94767e-06     -76.6026 
         100     0.653331 -0.000131652 -1.20823e-05     -76.6026 
         100     0.853332 -0.000125381 -1.60413e-05     -76.6026 
         100         1.08 -0.000118805 -1.94989e-05     -76.6025 
         100      1.33333 -0.000114907 -2.24708e-05     -76.6025 
         100      1.61333  -0.00011383 -2.48771e-05     -76.6025 
         100         1.92 -0.000115702 -2.63412e-05     -76.6025 
         100      2.25333 -0.000120692 -2.68352e-05     -76.6024 
         100      2.61333 -0.000124238 -2.59614e-05     -76.6024 
         100            3 -0.000121791 -2.35296e-05     -76.6023 
         150            0           -0           -0     -72.3229 
         150     0.013333  -0.00012176 -2.88578e-08     -72.3229 
         150     0.053333 -6.05105e-05 -3.76129e-07     -72.3229 
         150         0.12  9.31209e-06 -1.36486e-06     -72.3229 
         150     0.213332  6.62628e-05 -2.66096e-06     -72.3229 
         150     0.333332  9.31295e-05 -3.39657e-06     -72.3229 
         150         0.48  9.49178e-05 -3.01747e-06     -72.3229 
         150     0.653331   8.4809e-05 -1.74443e-06     -72.3229 
         150     0.853332   6.5373e-05 -3.80676e-07     -72.3229 
         150         1.08  3.30289e-05  4.87978e-07     -72.3228 
         150      1.33333 -6.17243e-06   8.9403e-07     -72.3228 
         150      1.61333 -4.55271e-05  1.25361e-06     -72.3228 
         150         1.92 -8.59961e-05  1.59561e-06     -72.3228 
         150      2.25333 -0.000122858  1.84134e-06     -72.3228 
         150      2.61333 -0.000151951   2.0569e-06     -72.3228 
         150            3  -0.00017075  2.28471e-06     -72.3228 
         200            0 -3.01124e-19 -1.80117e-25     -68.0959 
         200     0.013333 -0.000119845 -9.24079e-09     -68.0959 
         200     0.053333 -6.01264e-05 -1.01576e-07     -68.0959 
         200         0.12  1.88331e-07 -2.32546e-07     -68.0959 
         200     0.213332  4.22795e-05  5.57114e-08     -68.0959 
         200     0.333332  5.60045e-05  1.43037e-06     -68.0959 
         200         0.48  4.96644e-05   4.2646e-06     -68.0959 
         200     0.653331  3.79541e-05  8.43878e-06     -68.0959 
         200     0.853332  2.68213e-05  1.34039e-05     -68.0959 
         200         1.08   1.0088e-05  1.83791e-05     -68.0959 
         200      1.33333 -1.63976e-05  2.26989e-05     -68.0959 
         200      1.61333 -4.69906e-05  2.62283e-05     -68.0959 
         200         1.92 -7.84895e-05  2.88485e-05     -68.0959 
         200      2.25333 -0.000109987  3.02342e-05     -68.0959 
         200      2.61333 -0.000136925  3.04053e-05     -68.0959 
         200            3 -0.000154504  2.93745e-05     -68.0959 
         250            0           -0           -0     -63.8868 
         250     0.013333 -0.000146963  -8.1976e-08     -63.8868 
         250     0.053333 -0.000135432   -1.234e-06     -63.8868 
         250         0.12 -7.61644e-05 -5.57585e-06     -63.8868 
         250     0.213332  4.24057e-05 -1.48241e-05     -63.8868 
         250     0.333332  0.000173416 -2.88739e-05     -63.8868 
         250         0.48  0.000265536  -4.6168e-05     -63.8868 
         250     0.653331  0.000301002  -6.5303e-05     -63.8868 
         250     0.853332  0.000284996 -8.57452e-05     -63.8868 
         250         1.08  0.000232704  -0.00010685     -63.8868 
         250      1.33333  0.000167937 -0.000127072     -63.8868 
         250      1.61333    0.0001028 -0.000144552     -63.8868 
         250         1.92  3.25713e-05 -0.000157822     -63.8868 
         250      2.25333 -3.98054e-05 -0.000165659     -63.8868 
         250      2.61333  -0.00010707 -0.000167279     -63.8868 
         250            3 -0.000161247 -0.000162863     -63.8868 
         300            0           -0           -0     -59.6838 
         300     0.013333 -0.000162815  1.68325e-08     -59.6838 
         300     0.053333  -0.00022066  2.13547e-07     -59.6838 
         300         0.12 -0.000311579  7.21191e-07     -59.6838 
         300     0.213332 -0.000398899  1.22433e-06     -59.6838 
         300     0.333332 -0.000459143  1.07574e-06     -59.6838 
         300         0.48 -0.000491265 -2.27558e-07     -59.6838 
         300     0.653331 -0.000506656 -2.75126e-06     -59.6838 
         300     0.853332 -0.000509675 -5.99346e-06     -59.6838 
         300         1.08 -0.000489766 -8.94038e-06     -59.6838 
         300      1.33333 -0.000439526 -1.06746e-05     -59.6838 
         300      1.61333 -0.000372182 -1.12476e-05     -59.6838 
         300         1.92  -0.00029974 -1.11607e-05     -59.6838 
         300      2.25333 -0.000224146 -1.03542e-05     -59.6838 
         300      2.61333 -0.000151483 -9.01536e-06     -59.6838 
         300            3 -9.12062e-05 -7.30525e-06     -59.6838 
         350            0           -0           -0     -55.4824 
         350     0.013333 -0.000121352 -4.54503e-08     -55.4824 
         350     0.053333 -5.58101e-05 -6.47818e-07     -55.4824 
         350         0.12  3.74644e-05 -2.68856e-06     -55.4824 
         350     0.213332  0.000138405 -6.41004e-06     -55.4824 
         350     0.333332  0.000211721 -1.10001e-05     -55.4824 
         350         0.48  0.000242411 -1.53646e-05     -55.4824 
         350     0.653331  0.000240027  -1.9119e-05     -55.4824 
         350     0.853332  0.000215915 -2.27038e-05     -55.4824 
         350         1.08  0.000173749 -2.66016e-05     -55.4824 
         350      1.33333  0.000121368 -3.06323e-05     -55.4824 
         350      1.61333  6.76695e-05 -3.41694e-05     -55.4824 
         350         1.92  1.16266e-05 -3.68035e-05     -55.4824 
         350      2.25333 -4.70588e-05 -3.84122e-05     -55.4824 
         350      2.61333 -0.000103592 -3.87647e-05     -55.4824 
         350            3  -0.00015007 -3.77802e-05     -55.4824 
         400            0           -0           -0     -51.2817 
         400     0.013333 -0.000161242  -2.6008e-08     -51.2817 
         400     0.053333 -0.000202192 -4.24671e-07     -51.2817 
         400         0.12 -0.000240975 -2.12909e-06     -51.2817 
         400     0.213332 -0.000242998 -6.28947e-06     -51.2817 
         400     0.333332 -0.000213549  -1.3468e-05     -51.2817 
         400         0.48 -0.000181152 -2.32924e-05     -51.2817 
         400     0.653331 -0.000167055 -3.49654e-05     -51.2817 
         400     0.853332 -0.000172974  -4.7751e-05     -51.2817 
         400         1.08 -0.000185265  -6.0779e-05     -51.2817 
         400      1.33333 -0.000186519 -7.29076e-05     -51.2817 
         400      1.61333 -0.000174775  -8.3291e-05     -51.2817 
         400         1.92 -0.000160958 -9.15201e-05     -51.2817 
         400      2.25333 -0.000146917 -9.71136e-05     -51.2817 
         400      2.61333 -0.000132358 -9.94973e-05     -51.2817 
         400            3 -0.000118586  -9.8426e-05     -51.2817 
         450            0 -1.66727e-19  3.08165e-27     -47.0808 
         450     0.013333 -0.000166579  3.10294e-08     -47.0808 
         450     0.053333 -0.000236957  4.09361e-07     -47.0808 
         450         0.12 -0.000347017  1.47895e-06     -47.0808 
         450     0.213332 -0.000448205  2.81398e-06     -47.0808 
         450     0.333332 -0.000505048  3.29913e-06     -47.0808 
         450         0.48 -0.000518275  2.11197e-06     -47.0808 
         450     0.653331 -0.000510749 -6.01507e-07     -47.0808 
         450     0.853332 -0.000494445 -3.85977e-06     -47.0808 
         450         1.08 -0.000461113 -6.43147e-06     -47.0808 
         450      1.33333  -0.00040689 -7.79061e-06     -47.0808 
         450      1.61333 -0.000346578 -8.48035e-06     -47.0808 
         450         1.92 -0.000287449 -9.03825e-06     -47.0808 
         450      2.25333 -0.000226345 -9.38745e-06     -47.0808 
         450      2.61333  -0.00016482 -9.44758e-06     -47.0808 
         450            3 -0.000108913 -9.19944e-06     -47.0808 
         500            0            0            0     -42.8793 
         500     0.013333 -0.000165506  2.77223e-08     -42.8793 
         500     0.053333 -0.000231427  3.63573e-07     -42.8793 
         500         0.12 -0.000330846  1.27668e-06     -42.8793 
         500     0.213332 -0.000411409  2.20128e-06     -42.8793 
         500     0.333332 -0.000435555  1.77399e-06     -42.8793 
         500         0.48 -0.000408093 -1.01196e-06     -42.8793 
         500     0.653331 -0.000360502 -5.89813e-06     -42.8793 
         500     0.853332 -0.000312463 -1.16876e-05     -42.8793 
         500         1.08 -0.000264132 -1.72737e-05     -42.8793 
         500      1.33333 -0.000219415 -2.25799e-05     -42.8793 
         500      1.61333 -0.000187551 -2.81425e-05     -42.8793 
         500         1.92 -0.000161344 -3.37656e-05     -42.8793 
         500      2.25333 -0.000134867 -3.89956e-05     -42.8793 
         500      2.61333 -0.000109284 -4.32709e-05     -42.8793 
         500            3 -8.80994e-05 -4.62518e-05     -42.8793 
         550            0           -0           -0      -38.677 
         550     0.013333 -3.54318e-05   1.0641e-08      -38.677 
         550     0.053333  0.000234912  2.98714e-07      -38.677 
         550         0.12  0.000524929  2.27479e-06      -38.677 
         550     0.213332  0.000702835   9.0079e-06      -38.677 
         550     0.333332  0.000718045  2.37417e-05      -38.677 
         550         0.48   0.00062904  4.76127e-05      -38.677 
         550     0.653331  0.000530059  7.92198e-05      -38.677 
         550     0.853332  0.000470946  0.000115906      -38.677 
         550         1.08  0.000436195  0.000154542      -38.677 
         550      1.33333  0.000380572  0.000191967      -38.677 
         550      1.61333  0.000290351  0.000226066      -38.677 
         550         1.92  0.000189252  0.000255929      -38.677 
         550      2.25333  8.44272e-05  0.000280195      -38.677 
         550      2.61333 -2.17967e-05  0.000296935      -38.677 
         550            3 -0.000122834  0.000304623      -38.677 
         600            0           -0           -0     -34.4749 
         600     0.013333 -0.000257927 -6.33927e-09     -34.4749 
         600     0.053333 -0.000552732 -2.55127e-07     -34.4749 
         600         0.12 -0.000898313 -2.21604e-06     -34.4749 
         600     0.213332  -0.00112725 -9.28569e-06     -34.4749 
         600     0.333332  -0.00117049  -2.5176e-05     -34.4749 
         600         0.48   -0.0010887 -5.12678e-05     -34.4749 
         600     0.653331 -0.000989325 -8.59962e-05     -34.4749 
         600     0.853332 -0.000929886 -0.000126269     -34.4749 
         600         1.08  -0.00089205 -0.000168446     -34.4749 
         600      1.33333 -0.000823654 -0.000208978     -34.4749 
         600      1.61333 -0.000709027 -0.000245598     -34.4749 
         600         1.92 -0.000577942 -0.000277524     -34.4749 
         600      2.25333 -0.000441033 -0.000303528     -34.4749 
         600      2.61333 -0.000300648 -0.000321709     -34.4749 
         600            3 -0.000163891  -0.00033045     -34.4749 
         650            0            0            0     -30.2715 
         650     0.013333 -2.01333e-05  2.06552e-08     -30.2715 
         650     0.053333  0.000287289  4.66643e-07     -30.2715 
         650         0.12  0.000614809  3.14222e-06     -30.2715 
         650     0.213332  0.000812297  1.16355e-05     -30.2715 
         650     0.333332  0.000827959  2.94567e-05     -30.2715 
         650         0.48  0.000734148  5.75374e-05     -30.2715 
         650     0.653331  0.000639398  9.40253e-05     -30.2715 
         650     0.853332   0.00059791  0.000135866     -30.2715 
         650         1.08  0.000585476  0.000179473     -30.2715 
         650      1.33333   0.00053785  0.000220948     -30.2715 
         650      1.61333  0.000432022  0.000257721     -30.2715 
         650         1.92  0.000308819  0.000289354     -30.2715 
         650      2.25333  0.000183308  0.000315217     -30.2715 
         650      2.61333  5.60951e-05  0.000333371     -30.2715 
         650            3 -6.89483e-05  0.000342121     -30.2715 
         700            0            0            0     -26.0688 
         700     0.013333 -0.000239423 -3.20735e-08     -26.0688 
         700     0.053333 -0.000478792 -6.14966e-07     -26.0688 
         700         0.12 -0.000740316 -3.66116e-06     -26.0688 
         700     0.213332 -0.000881092 -1.25572e-05     -26.0688 
         700     0.333332 -0.000861026 -3.03348e-05     -26.0688 
         700         0.48 -0.000753125 -5.75236e-05     -26.0688 
         700     0.653331 -0.000657554 -9.22103e-05     -26.0688 
         700     0.853332 -0.000621402 -0.000131644     -26.0688 
         700         1.08  -0.00062317 -0.000172857     -26.0688 
         700      1.33333 -0.000603133 -0.000212439     -26.0688 
         700      1.61333 -0.000530694 -0.000247791     -26.0688 
         700         1.92 -0.000438925 -0.000278328     -26.0688 
         700      2.25333 -0.000347706 -0.000303399     -26.0688 
         700      2.61333 -0.000257647 -0.000321581     -26.0688 
         700            3  -0.00016795 -0.000331255     -26.0688 
         750            0           -0           -0     -21.8649 
         750     0.013333 -8.27316e-06 -8.35682e-09     -21.8649 
         750     0.053333  0.000340142  3.27218e-08     -21.8649 
         750         0.12  0.000741566  1.21628e-06     -21.8649 
         750     0.213332   0.00102737  6.70441e-06     -21.8649 
         750     0.333332   0.00110783  2.04741e-05     -21.8649 
         750         0.48   0.00102968  4.45417e-05     -21.8649 
         750     0.653331  0.000908165  7.78101e-05     -21.8649 
         750     0.853332  0.000821559  0.000117267     -21.8649 
         750         1.08  0.000766917  0.000159215     -21.8649 
         750      1.33333  0.000691381  0.000199998     -21.8649 
         750      1.61333    0.0005676  0.000237174     -21.8649 
         750         1.92  0.000424839   0.00027018     -21.8649 
         750      2.25333   0.00027862  0.000298674     -21.8649 
         750      2.61333  0.000128999  0.000320815     -21.8649 
         750            3 -2.20155e-05  0.000334687     -21.8649 
         800            0            0            0     -17.6617 
         800     0.013333 -0.000215145  1.32129e-07     -17.6617 
         800     0.053333 -0.000446556  1.88924e-06     -17.6617 
         800         0.12 -0.000840651  7.90717e-06     -17.6617 
         800     0.213332  -0.00129336  1.91246e-05     -17.6617 
         800     0.333332  -0.00165751  3.33524e-05     -17.6617 
         800         0.48  -0.00184989  4.69877e-05     -17.6617 
         800     0.653331  -0.00189365  5.79118e-05     -17.6617 
         800     0.853332   -0.0018521  6.66806e-05     -17.6617 
         800         1.08  -0.00175131  7.57226e-05     -17.6617 
         800      1.33333   -0.0015825  8.72132e-05     -17.6617 
         800      1.61333  -0.00136254  0.000101025     -17.6617 
         800         1.92  -0.00113802  0.000114762     -17.6617 
         800      2.25333 -0.000909305  0.000126792     -17.6617 
         800      2.61333 -0.000667678  0.000136274     -17.6617 
         800            3 -0.000418042  0.000142647     -17.6617 
         850            0           -0           -0     -13.4568 
         850     0.013333 -0.000233441 -7.83811e-08     -13.4568 
         850     0.053333 -0.000445848 -1.26705e-06     -13.4568 
         850         0.12 -0.000649509 -6.35282e-06     -13.4568 
         850     0.213332 -0.000711404 -1.90911e-05     -13.4568 
         850     0.333332 -0.000613512 -4.21864e-05     -13.4568 
         850         0.48 -0.000442429 -7.57098e-05     -13.4568 
         850     0.653331 -0.000299824 -0.000117625     -13.4568 
         850     0.853332 -0.000234748 -0.000165553     -13.4568 
         850         1.08 -0.000241289 -0.000217564     -13.4568 
         850      1.33333 -0.000278493 -0.000271484     -13.4568 
         850      1.61333 -0.000297095 -0.000324344     -13.4568 
         850         1.92 -0.000278216 -0.000373344     -13.4568 
         850      2.25333 -0.000244868 -0.000416433     -13.4568 
         850      2.61333 -0.000210377 -0.000451471     -13.4568 
         850            3 -0.000174748 -0.000476161     -13.4568 
         900            0           -0           -0      -9.2515 
         900     0.013333 -3.15354e-05 -1.07362e-07      -9.2515 
         900     0.053333  0.000291097 -1.49615e-06      -9.2515 
         900         0.12  0.000750999 -5.96236e-06      -9.2515 
         900     0.213332   0.00121459 -1.32834e-05      -9.2515 
         900     0.333332    0.0015278 -2.02796e-05      -9.2515 
         900         0.48   0.00163246 -2.30742e-05      -9.2515 
         900     0.653331   0.00158836 -2.01467e-05      -9.2515 
         900     0.853332    0.0014835 -1.30809e-05      -9.2515 
         900         1.08   0.00135097 -5.08756e-06      -9.2515 
         900      1.33333    0.0011804  1.32579e-06      -9.2515 
         900      1.61333  0.000979834  5.80028e-06      -9.2515 
         900         1.92  0.000780852  9.68439e-06      -9.2515 
         900      2.25333  0.000582312  1.36748e-05     -9.25151 
         900      2.61333   0.00037454  1.76013e-05     -9.25152 
         900            3  0.000157718  2.11271e-05     -9.25153 
         950            0           -0           -0     -5.04705 
         950     0.013333 -2.89196e-05  2.05009e-07     -5.04705 
         950     0.053333  0.000197182  3.18559e-06     -5.04705 
         950         0.12  0.000275409  1.52163e-05     -5.04705 
         950     0.213332  5.02792e-05  4.34394e-05     -5.04705 
         950     0.333332 -0.000409587  9.13429e-05     -5.04705 
         950         0.48 -0.000880806  0.000156606     -5.04705 
         950     0.653331  -0.00118022  0.000233727     -5.04705 
         950     0.853332  -0.00126043  0.000318236     -5.04705 
         950         1.08  -0.00116787  0.000407735     -5.04705 
         950      1.33333 -0.000992557  0.000499447     -5.04705 
         950      1.61333 -0.000832538  0.000588739     -5.04705 
         950         1.92 -0.000724362  0.000671243     -5.04705 
         950      2.25333 -0.000622823  0.000743827     -5.04705 
         950      2.61333 -0.000504063  0.000803561     -5.04705 
         950            3 -0.000373268  0.000846792     -5.04704 
        1000            0 -2.25286e-19  2.27624e-23    -0.842346 
        1000     0.013333 -0.000334205  2.66409e-07    -0.842346 
        1000     0.053333 -0.000892535  3.00647e-06    -0.842346 
        1000         0.12  -0.00172795  1.10654e-05    -0.842346 
        1000     0.213332  -0.00259706  2.32949e-05    -0.842346 
        1000     0.333332  -0.00323402  3.37265e-05    -0.842346 
        1000         0.48  -0.00351727  3.40173e-05    -0.842347 
        1000     0.653331  -0.00351441  2.06324e-05    -0.842348 
        1000     0.853332  -0.00336813 -3.55303e-06     -0.84235 
        1000         1.08  -0.00315264 -3.28184e-05    -0.842351 
        1000      1.33333  -0.00284716 -6.13587e-05     -0.84235 
        1000      1.61333  -0.00243797 -8.63427e-05    -0.842348 
        1000         1.92  -0.00198979 -0.000109041    -0.842341 
        1000      2.25333  -0.00153778 -0.000132095    -0.842328 
        1000      2.61333  -0.00107355 -0.000154797    -0.842308 
        1000            3 -0.000587694 -0.000175611    -0.842279 
