<?xml version="1.0"?>
<VTKFile type="UnstructuredGrid" version="0.1" byte_order="LittleEndian">
  <UnstructuredGrid>
    <Piece NumberOfPoints="9" NumberOfCells="4">
      <Points>
        <DataArray type="Float64" NumberOfComponents="3" format="ascii">
          -1.00000000e+01 1.00000000e+01 0.00000000e+00 
-1.00000000e+01 9.19999981e+00 0.00000000e+00 
-1.00000000e+01 8.39999962e+00 0.00000000e+00 
-9.19999981e+00 1.00000000e+01 0.00000000e+00 
-9.19999981e+00 9.19999981e+00 0.00000000e+00 
-9.19999981e+00 8.39999962e+00 0.00000000e+00 
-8.39999962e+00 1.00000000e+01 0.00000000e+00 
-8.39999962e+00 9.19999981e+00 0.00000000e+00 
-8.39999962e+00 8.39999962e+00 0.00000000e+00 

        </DataArray>
      </Points>
      <Cells>
        <DataArray type="Int32" Name="connectivity" format="ascii">
0 1 4 3
3 4 7 6
1 2 5 4
4 5 8 7

        </DataArray>
        <DataArray type="Int32" Name="offsets" format="ascii">
4 8 12 16 
        </DataArray>
        <DataArray type="UInt8" Name="types" format="ascii">
9 9 9 9 
        </DataArray>
      </Cells>
      <PointData>
        <DataArray type="Float64" Name="rho">
          1.22535879e+00 1.22551580e+00 1.22562578e+00 1.22552881e+00 1.22558772e+00 1.22567254e+00 1.22558840e+00 1.22566283e+00 1.22571374e+00 
        </DataArray>
        <DataArray type="Float64" Name="rhou">
          8.32649610e+01 8.32353181e+01 8.32039152e+01 8.31408011e+01 8.31913359e+01 8.31909772e+01 8.31199017e+01 8.31684652e+01 8.31826466e+01 
        </DataArray>
        <DataArray type="Float64" Name="rhov">
          9.41652938e-02 4.42323291e-03 2.24926659e-03 1.77109821e-01 1.37877613e-01 1.31196437e-01 1.89655431e-01 2.04047579e-01 2.12293244e-01 
        </DataArray>
        <DataArray type="Float64" Name="E">
          2.56244885e+05 2.56287519e+05 2.56316824e+05 2.56281187e+05 2.56303770e+05 2.56330255e+05 2.56294034e+05 2.56323334e+05 2.56343582e+05 
        </DataArray>
        <DataArray type="Float64" Name="p">
          1.01366358e+05 1.01384363e+05 1.01397039e+05 1.01384403e+05 1.01392121e+05 1.01402803e+05 1.01390162e+05 1.01400632e+05 1.01408392e+05 
        </DataArray>
        <DataArray type="Float64" Name="a">
          3.40313599e+02 3.40322019e+02 3.40328022e+02 3.40320280e+02 3.40325053e+02 3.40331204e+02 3.40321672e+02 3.40328908e+02 3.40334863e+02 
        </DataArray>
        <DataArray type="Float64" Name="Mach">
          1.99673243e-01 1.99571529e-01 1.99474853e-01 1.99344299e-01 1.99452904e-01 1.99434617e-01 1.99283788e-01 1.99383962e-01 1.99406227e-01 
        </DataArray>
        <DataArray type="Float64" Name="Sensor">
          -4.95171096e+00 -4.95171096e+00 -4.95171096e+00 -4.95171096e+00 -4.95171096e+00 -4.95171096e+00 -4.95171096e+00 -4.95171096e+00 -4.95171096e+00 
        </DataArray>
        <DataArray type="Float64" Name="W_z">
          -2.19511851e-01 -6.80055924e-02 -1.89440497e-02 -9.06045656e-02 -4.16931960e-02 -1.31706870e-02 3.85211905e-02 -1.53152523e-02 -7.48470244e-03 
        </DataArray>
      </PointData>
    </Piece>
    <Piece NumberOfPoints="9" NumberOfCells="4">
      <Points>
        <DataArray type="Float64" NumberOfComponents="3" format="ascii">
          -8.39999962e+00 1.00000000e+01 0.00000000e+00 
-8.39999962e+00 9.19999981e+00 0.00000000e+00 
-8.39999962e+00 8.39999962e+00 0.00000000e+00 
-7.59999990e+00 1.00000000e+01 0.00000000e+00 
-7.59999990e+00 9.19999981e+00 0.00000000e+00 
-7.59999990e+00 8.39999962e+00 0.00000000e+00 
-6.80000019e+00 1.00000000e+01 0.00000000e+00 
-6.80000019e+00 9.19999981e+00 0.00000000e+00 
-6.80000019e+00 8.39999962e+00 0.00000000e+00 

        </DataArray>
      </Points>
      <Cells>
        <DataArray type="Int32" Name="connectivity" format="ascii">
0 1 4 3
3 4 7 6
1 2 5 4
4 5 8 7

        </DataArray>
        <DataArray type="Int32" Name="offsets" format="ascii">
4 8 12 16 
        </DataArray>
        <DataArray type="UInt8" Name="types" format="ascii">
9 9 9 9 
        </DataArray>
      </Cells>
      <PointData>
        <DataArray type="Float64" Name="rho">
          1.22560933e+00 1.22565819e+00 1.22571145e+00 1.22567101e+00 1.22570612e+00 1.22574518e+00 1.22572256e+00 1.22573543e+00 1.22575048e+00 
        </DataArray>
        <DataArray type="Float64" Name="rhou">
          8.31166569e+01 8.31703706e+01 8.31816846e+01 8.30981537e+01 8.31730027e+01 8.31992722e+01 8.30872478e+01 8.31885800e+01 8.32374715e+01 
        </DataArray>
        <DataArray type="Float64" Name="rhov">
          1.96150104e-01 2.04799973e-01 2.19352483e-01 2.14839546e-01 2.23800136e-01 2.52976963e-01 2.26176043e-01 2.49048446e-01 2.90269752e-01 
        </DataArray>
        <DataArray type="Float64" Name="E">
          2.56299873e+05 2.56322242e+05 2.56342979e+05 2.56312322e+05 2.56334722e+05 2.56354816e+05 2.56321955e+05 2.56342366e+05 2.56359628e+05 
        </DataArray>
        <DataArray type="Float64" Name="p">
          1.01392605e+05 1.01400140e+05 1.01408175e+05 1.01398142e+05 1.01405103e+05 1.01412461e+05 1.01402338e+05 1.01407763e+05 1.01413350e+05 
        </DataArray>
        <DataArray type="Float64" Name="a">
          3.40322865e+02 3.40328726e+02 3.40334816e+02 3.40323594e+02 3.40330401e+02 3.40337325e+02 3.40323478e+02 3.40330795e+02 3.40338082e+02 
        </DataArray>
        <DataArray type="Float64" Name="Mach">
          1.99271913e-01 1.99389358e-01 1.99404335e-01 1.99217213e-01 1.99387006e-01 1.99439764e-01 1.99182831e-01 1.99419520e-01 1.99530316e-01 
        </DataArray>
        <DataArray type="Float64" Name="Sensor">
          -5.41649052e+00 -5.41649052e+00 -5.41649052e+00 -5.41649052e+00 -5.41649052e+00 -5.41649052e+00 -5.41649052e+00 -5.41649052e+00 -5.41649052e+00 
        </DataArray>
        <DataArray type="Float64" Name="W_z">
          -2.78188245e-02 -4.73679555e-03 9.17159737e-03 -1.83392806e-02 1.14272476e-02 3.49181269e-02 -8.86954592e-03 2.75798502e-02 6.06515840e-02 
        </DataArray>
      </PointData>
    </Piece>
    <Piece NumberOfPoints="9" NumberOfCells="4">
      <Points>
        <DataArray type="Float64" NumberOfComponents="3" format="ascii">
          -6.80000019e+00 1.00000000e+01 0.00000000e+00 
-6.80000019e+00 9.19999981e+00 0.00000000e+00 
-6.80000019e+00 8.39999962e+00 0.00000000e+00 
-6.00000000e+00 1.00000000e+01 0.00000000e+00 
-6.00000000e+00 9.19999981e+00 0.00000000e+00 
-6.00000000e+00 8.39999962e+00 0.00000000e+00 
-5.19999981e+00 1.00000000e+01 0.00000000e+00 
-5.19999981e+00 9.19999981e+00 0.00000000e+00 
-5.19999981e+00 8.39999962e+00 0.00000000e+00 

        </DataArray>
      </Points>
      <Cells>
        <DataArray type="Int32" Name="connectivity" format="ascii">
0 1 4 3
3 4 7 6
1 2 5 4
4 5 8 7

        </DataArray>
        <DataArray type="Int32" Name="offsets" format="ascii">
4 8 12 16 
        </DataArray>
        <DataArray type="UInt8" Name="types" format="ascii">
9 9 9 9 
        </DataArray>
      </Cells>
      <PointData>
        <DataArray type="Float64" Name="rho">
          1.22571902e+00 1.22573536e+00 1.22575562e+00 1.22573915e+00 1.22573593e+00 1.22574473e+00 1.22573356e+00 1.22572669e+00 1.22573944e+00 
        </DataArray>
        <DataArray type="Float64" Name="rhou">
          8.30882788e+01 8.31899579e+01 8.32384541e+01 8.31176249e+01 8.32284660e+01 8.32834832e+01 8.32071808e+01 8.33064563e+01 8.33500854e+01 
        </DataArray>
        <DataArray type="Float64" Name="rhov">
          2.26003338e-01 2.47114910e-01 2.85967113e-01 2.28033300e-01 2.96043007e-01 3.60629525e-01 2.23201966e-01 3.44829119e-01 4.50526799e-01 
        </DataArray>
        <DataArray type="Float64" Name="E">
          2.56321033e+05 2.56342399e+05 2.56361081e+05 2.56324845e+05 2.56343933e+05 2.56362065e+05 2.56326577e+05 2.56346205e+05 2.56366307e+05 
        </DataArray>
        <DataArray type="Float64" Name="p">
          1.01401938e+05 1.01407738e+05 1.01413909e+05 1.01402685e+05 1.01407303e+05 1.01413062e+05 1.01400943e+05 1.01406079e+05 1.01412931e+05 
        </DataArray>
        <DataArray type="Float64" Name="a">
          3.40323299e+02 3.40330765e+02 3.40338306e+02 3.40321758e+02 3.40329954e+02 3.40338395e+02 3.40319611e+02 3.40329183e+02 3.40338911e+02 
        </DataArray>
        <DataArray type="Float64" Name="Mach">
          1.99185983e-01 1.99422840e-01 1.99531675e-01 1.99253969e-01 1.99515915e-01 1.99642027e-01 1.99470783e-01 1.99705279e-01 1.99803290e-01 
        </DataArray>
        <DataArray type="Float64" Name="Sensor">
          -5.43436863e+00 -5.43436863e+00 -5.43436863e+00 -5.43436863e+00 -5.43436863e+00 -5.43436863e+00 -5.43436863e+00 -5.43436863e+00 -5.43436863e+00 
        </DataArray>
        <DataArray type="Float64" Name="W_z">
          -9.30561461e-04 2.34815712e-02 4.28311279e-02 7.43022236e-02 7.28149661e-02 6.97880717e-02 1.49555235e-01 1.22167948e-01 9.67639637e-02 
        </DataArray>
      </PointData>
    </Piece>
    <Piece NumberOfPoints="9" NumberOfCells="4">
      <Points>
        <DataArray type="Float64" NumberOfComponents="3" format="ascii">
          -5.19999981e+00 1.00000000e+01 0.00000000e+00 
-5.19999981e+00 9.19999981e+00 0.00000000e+00 
-5.19999981e+00 8.39999962e+00 0.00000000e+00 
-4.40000010e+00 1.00000000e+01 0.00000000e+00 
-4.40000010e+00 9.19999981e+00 0.00000000e+00 
-4.40000010e+00 8.39999962e+00 0.00000000e+00 
-3.59999990e+00 1.00000000e+01 0.00000000e+00 
-3.59999990e+00 9.19999981e+00 0.00000000e+00 
-3.59999990e+00 8.39999962e+00 0.00000000e+00 

        </DataArray>
      </Points>
      <Cells>
        <DataArray type="Int32" Name="connectivity" format="ascii">
0 1 4 3
3 4 7 6
1 2 5 4
4 5 8 7

        </DataArray>
        <DataArray type="Int32" Name="offsets" format="ascii">
4 8 12 16 
        </DataArray>
        <DataArray type="UInt8" Name="types" format="ascii">
9 9 9 9 
        </DataArray>
      </Cells>
      <PointData>
        <DataArray type="Float64" Name="rho">
          1.22573056e+00 1.22572398e+00 1.22573700e+00 1.22571491e+00 1.22571325e+00 1.22572782e+00 1.22567847e+00 1.22568670e+00 1.22570186e+00 
        </DataArray>
        <DataArray type="Float64" Name="rhou">
          8.32053860e+01 8.33053202e+01 8.33501638e+01 8.33450884e+01 8.34264498e+01 8.34571870e+01 8.35017962e+01 8.35798951e+01 8.36152301e+01 
        </DataArray>
        <DataArray type="Float64" Name="rhov">
          2.22374878e-01 3.45674664e-01 4.50140663e-01 2.15047374e-01 3.77121517e-01 5.32095835e-01 2.02762800e-01 3.85714477e-01 5.79371347e-01 
        </DataArray>
        <DataArray type="Float64" Name="E">
          2.56325592e+05 2.56345313e+05 2.56365563e+05 2.56329012e+05 2.56350658e+05 2.56371247e+05 2.56328467e+05 2.56353498e+05 2.56374684e+05 
        </DataArray>
        <DataArray type="Float64" Name="p">
          1.01400595e+05 1.01405750e+05 1.01412629e+05 1.01398152e+05 1.01404579e+05 1.01411968e+05 1.01393635e+05 1.01401508e+05 1.01409002e+05 
        </DataArray>
        <DataArray type="Float64" Name="a">
          3.40319442e+02 3.40329007e+02 3.40338743e+02 3.40317517e+02 3.40328533e+02 3.40338908e+02 3.40314995e+02 3.40327066e+02 3.40337535e+02 
        </DataArray>
        <DataArray type="Float64" Name="Mach">
          1.99467063e-01 1.99703108e-01 1.99803967e-01 1.99805607e-01 1.99995838e-01 2.00063073e-01 2.00188662e-01 2.00368980e-01 2.00447718e-01 
        </DataArray>
        <DataArray type="Float64" Name="Sensor">
          -5.41302721e+00 -5.41302721e+00 -5.41302721e+00 -5.41302721e+00 -5.41302721e+00 -5.41302721e+00 -5.41302721e+00 -5.41302721e+00 -5.41302721e+00 
        </DataArray>
        <DataArray type="Float64" Name="W_z">
          1.63979125e-01 1.31218788e-01 1.01920231e-01 1.85244145e-01 1.71617380e-01 1.65694839e-01 2.06519084e-01 2.12018485e-01 2.29464554e-01 
        </DataArray>
      </PointData>
    </Piece>
    <Piece NumberOfPoints="9" NumberOfCells="4">
      <Points>
        <DataArray type="Float64" NumberOfComponents="3" format="ascii">
          -3.59999990e+00 1.00000000e+01 0.00000000e+00 
-3.59999990e+00 9.19999981e+00 0.00000000e+00 
-3.59999990e+00 8.39999962e+00 0.00000000e+00 
-2.79999995e+00 1.00000000e+01 0.00000000e+00 
-2.79999995e+00 9.19999981e+00 0.00000000e+00 
-2.79999995e+00 8.39999962e+00 0.00000000e+00 
-2.00000000e+00 1.00000000e+01 0.00000000e+00 
-2.00000000e+00 9.19999981e+00 0.00000000e+00 
-2.00000000e+00 8.39999962e+00 0.00000000e+00 

        </DataArray>
      </Points>
      <Cells>
        <DataArray type="Int32" Name="connectivity" format="ascii">
0 1 4 3
3 4 7 6
1 2 5 4
4 5 8 7

        </DataArray>
        <DataArray type="Int32" Name="offsets" format="ascii">
4 8 12 16 
        </DataArray>
        <DataArray type="UInt8" Name="types" format="ascii">
9 9 9 9 
        </DataArray>
      </Cells>
      <PointData>
        <DataArray type="Float64" Name="rho">
          1.22568187e+00 1.22568587e+00 1.22569585e+00 1.22563942e+00 1.22564443e+00 1.22564477e+00 1.22558015e+00 1.22557165e+00 1.22555126e+00 
        </DataArray>
        <DataArray type="Float64" Name="rhou">
          8.35008520e+01 8.35785945e+01 8.36136819e+01 8.36485594e+01 8.37522637e+01 8.38214855e+01 8.37788504e+01 8.39278325e+01 8.40500932e+01 
        </DataArray>
        <DataArray type="Float64" Name="rhov">
          2.03048979e-01 3.86193793e-01 5.81951352e-01 1.88872431e-01 3.65898435e-01 5.77147015e-01 1.68215325e-01 3.32402223e-01 5.41503709e-01 
        </DataArray>
        <DataArray type="Float64" Name="E">
          2.56329376e+05 2.56353264e+05 2.56373007e+05 2.56326857e+05 2.56352522e+05 2.56371370e+05 2.56318542e+05 2.56342648e+05 2.56358424e+05 
        </DataArray>
        <DataArray type="Float64" Name="p">
          1.01394027e+05 1.01401449e+05 1.01408367e+05 1.01388952e+05 1.01396374e+05 1.01401988e+05 1.01382012e+05 1.01387556e+05 1.01390467e+05 
        </DataArray>
        <DataArray type="Float64" Name="a">
          3.40315181e+02 3.40327081e+02 3.40337305e+02 3.40312558e+02 3.40324317e+02 3.40333693e+02 3.40309139e+02 3.40319624e+02 3.40327340e+02 
        </DataArray>
        <DataArray type="Float64" Name="Mach">
          2.00185741e-01 2.00365997e-01 2.00445165e-01 2.00548289e-01 2.00790526e-01 2.00953697e-01 2.00872297e-01 2.01225818e-01 2.01520284e-01 
        </DataArray>
        <DataArray type="Float64" Name="Sensor">
          -5.17590630e+00 -5.17590630e+00 -5.17590630e+00 -5.17590630e+00 -5.17590630e+00 -5.17590630e+00 -5.17590630e+00 -5.17590630e+00 -5.17590630e+00 
        </DataArray>
        <DataArray type="Float64" Name="W_z">
          1.95520730e-01 2.15907977e-01 2.46768100e-01 1.73758237e-01 2.18277116e-01 2.72754547e-01 1.51975449e-01 2.20630265e-01 2.98729313e-01 
        </DataArray>
      </PointData>
    </Piece>
    <Piece NumberOfPoints="9" NumberOfCells="4">
      <Points>
        <DataArray type="Float64" NumberOfComponents="3" format="ascii">
          -1.00000000e+01 8.39999962e+00 0.00000000e+00 
-1.00000000e+01 7.59999990e+00 0.00000000e+00 
-1.00000000e+01 6.80000019e+00 0.00000000e+00 
-9.19999981e+00 8.39999962e+00 0.00000000e+00 
-9.19999981e+00 7.59999990e+00 0.00000000e+00 
-9.19999981e+00 6.80000019e+00 0.00000000e+00 
-8.39999962e+00 8.39999962e+00 0.00000000e+00 
-8.39999962e+00 7.59999990e+00 0.00000000e+00 
-8.39999962e+00 6.80000019e+00 0.00000000e+00 

        </DataArray>
      </Points>
      <Cells>
        <DataArray type="Int32" Name="connectivity" format="ascii">
0 1 4 3
3 4 7 6
1 2 5 4
4 5 8 7

        </DataArray>
        <DataArray type="Int32" Name="offsets" format="ascii">
4 8 12 16 
        </DataArray>
        <DataArray type="UInt8" Name="types" format="ascii">
9 9 9 9 
        </DataArray>
      </Cells>
      <PointData>
        <DataArray type="Float64" Name="rho">
          1.22561206e+00 1.22570039e+00 1.22577958e+00 1.22567923e+00 1.22575875e+00 1.22584072e+00 1.22573944e+00 1.22580509e+00 1.22588300e+00 
        </DataArray>
        <DataArray type="Float64" Name="rhou">
          8.32083445e+01 8.31846616e+01 8.31630628e+01 8.31969869e+01 8.31683377e+01 8.31514071e+01 8.32012224e+01 8.31670492e+01 8.31537726e+01 
        </DataArray>
        <DataArray type="Float64" Name="rhov">
          -1.53337586e-03 -2.66001211e-03 -3.36888266e-03 1.29706753e-01 1.34967705e-01 1.38398463e-01 2.13527103e-01 2.38716957e-01 2.59181692e-01 
        </DataArray>
        <DataArray type="Float64" Name="E">
          2.56313257e+05 2.56336831e+05 2.56358020e+05 2.56328658e+05 2.56351544e+05 2.56372671e+05 2.56345077e+05 2.56365389e+05 2.56385080e+05 
        </DataArray>
        <DataArray type="Float64" Name="p">
          1.01395479e+05 1.01405633e+05 1.01414768e+05 1.01402007e+05 1.01412012e+05 1.01420997e+05 1.01408510e+05 1.01417621e+05 1.01425928e+05 
        </DataArray>
        <DataArray type="Float64" Name="a">
          3.40327310e+02 3.40332087e+02 3.40336420e+02 3.40328938e+02 3.40334689e+02 3.40338386e+02 3.40331493e+02 3.40337666e+02 3.40340789e+02 
        </DataArray>
        <DataArray type="Float64" Name="Mach">
          1.99488098e-01 1.99414155e-01 1.99346966e-01 1.99449253e-01 1.99364291e-01 1.99308227e-01 1.99448558e-01 1.99352504e-01 1.99306325e-01 
        </DataArray>
        <DataArray type="Float64" Name="Sensor">
          -5.52223245e+00 -5.52223245e+00 -5.52223245e+00 -5.52223245e+00 -5.52223245e+00 -5.52223245e+00 -5.52223245e+00 -5.52223245e+00 -5.52223245e+00 
        </DataArray>
        <DataArray type="Float64" Name="W_z">
          -2.38265686e-02 -2.96974161e-02 -2.32395956e-02 -4.35345551e-03 -1.09068801e-02 -5.70237018e-03 1.51144794e-02 7.87622689e-03 1.18251765e-02 
        </DataArray>
      </PointData>
    </Piece>
    <Piece NumberOfPoints="9" NumberOfCells="4">
      <Points>
        <DataArray type="Float64" NumberOfComponents="3" format="ascii">
          -8.39999962e+00 8.39999962e+00 0.00000000e+00 
-8.39999962e+00 7.59999990e+00 0.00000000e+00 
-8.39999962e+00 6.80000019e+00 0.00000000e+00 
-7.59999990e+00 8.39999962e+00 0.00000000e+00 
-7.59999990e+00 7.59999990e+00 0.00000000e+00 
-7.59999990e+00 6.80000019e+00 0.00000000e+00 
-6.80000019e+00 8.39999962e+00 0.00000000e+00 
-6.80000019e+00 7.59999990e+00 0.00000000e+00 
-6.80000019e+00 6.80000019e+00 0.00000000e+00 

        </DataArray>
      </Points>
      <Cells>
        <DataArray type="Int32" Name="connectivity" format="ascii">
0 1 4 3
3 4 7 6
1 2 5 4
4 5 8 7

        </DataArray>
        <DataArray type="Int32" Name="offsets" format="ascii">
4 8 12 16 
        </DataArray>
        <DataArray type="UInt8" Name="types" format="ascii">
9 9 9 9 
        </DataArray>
      </Cells>
      <PointData>
        <DataArray type="Float64" Name="rho">
          1.22573455e+00 1.22580108e+00 1.22587975e+00 1.22577741e+00 1.22583035e+00 1.22590810e+00 1.22579396e+00 1.22584155e+00 1.22592763e+00 
        </DataArray>
        <DataArray type="Float64" Name="rhou">
          8.32014058e+01 8.31673660e+01 8.31540442e+01 8.32323274e+01 8.31940213e+01 8.31819594e+01 8.32837449e+01 8.32455446e+01 8.32342336e+01 
        </DataArray>
        <DataArray type="Float64" Name="rhov">
          2.19436162e-01 2.44598836e-01 2.64975254e-01 2.52486557e-01 3.00329012e-01 3.45613142e-01 2.90115848e-01 3.56556281e-01 4.24799739e-01 
        </DataArray>
        <DataArray type="Float64" Name="E">
          2.56343822e+05 2.56364394e+05 2.56384293e+05 2.56356465e+05 2.56374113e+05 2.56393621e+05 2.56363050e+05 2.56379816e+05 2.56401671e+05 
        </DataArray>
        <DataArray type="Float64" Name="p">
          1.01407998e+05 1.01417211e+05 1.01425602e+05 1.01412253e+05 1.01420397e+05 1.01428594e+05 1.01413502e+05 1.01421283e+05 1.01430403e+05 
        </DataArray>
        <DataArray type="Float64" Name="a">
          3.40331313e+02 3.40337535e+02 3.40340693e+02 3.40332502e+02 3.40338817e+02 3.40341778e+02 3.40332300e+02 3.40338750e+02 3.40342102e+02 
        </DataArray>
        <DataArray type="Float64" Name="Mach">
          1.99449906e-01 1.99354010e-01 1.99307587e-01 1.99516581e-01 1.99412827e-01 1.99369959e-01 1.99637550e-01 1.99535073e-01 1.99492758e-01 
        </DataArray>
        <DataArray type="Float64" Name="Sensor">
          -5.25037501e+00 -5.25037501e+00 -5.25037501e+00 -5.25037501e+00 -5.25037501e+00 -5.25037501e+00 -5.25037501e+00 -5.25037501e+00 -5.25037501e+00 
        </DataArray>
        <DataArray type="Float64" Name="W_z">
          2.59177593e-02 1.78673872e-02 1.97756299e-02 5.15126218e-02 4.89433415e-02 5.02310719e-02 7.71171555e-02 8.00302312e-02 8.06987138e-02 
        </DataArray>
      </PointData>
    </Piece>
    <Piece NumberOfPoints="9" NumberOfCells="4">
      <Points>
        <DataArray type="Float64" NumberOfComponents="3" format="ascii">
          -6.80000019e+00 8.39999962e+00 0.00000000e+00 
-6.80000019e+00 7.59999990e+00 0.00000000e+00 
-6.80000019e+00 6.80000019e+00 0.00000000e+00 
-6.00000000e+00 8.39999962e+00 0.00000000e+00 
-6.00000000e+00 7.59999990e+00 0.00000000e+00 
-6.00000000e+00 6.80000019e+00 0.00000000e+00 
-5.19999981e+00 8.39999962e+00 0.00000000e+00 
-5.19999981e+00 7.59999990e+00 0.00000000e+00 
-5.19999981e+00 6.80000019e+00 0.00000000e+00 

        </DataArray>
      </Points>
      <Cells>
        <DataArray type="Int32" Name="connectivity" format="ascii">
0 1 4 3
3 4 7 6
1 2 5 4
4 5 8 7

        </DataArray>
        <DataArray type="Int32" Name="offsets" format="ascii">
4 8 12 16 
        </DataArray>
        <DataArray type="UInt8" Name="types" format="ascii">
9 9 9 9 
        </DataArray>
      </Cells>
      <PointData>
        <DataArray type="Float64" Name="rho">
          1.22579769e+00 1.22584513e+00 1.22593140e+00 1.22579555e+00 1.22585042e+00 1.22595191e+00 1.22579281e+00 1.22585747e+00 1.22596882e+00 
        </DataArray>
        <DataArray type="Float64" Name="rhou">
          8.32844085e+01 8.32458075e+01 8.32342673e+01 8.33473240e+01 8.33135073e+01 8.33024913e+01 8.34242602e+01 8.34000845e+01 8.33902519e+01 
        </DataArray>
        <DataArray type="Float64" Name="rhov">
          2.85540197e-01 3.53528154e-01 4.23041510e-01 3.60289447e-01 4.44933368e-01 5.34506011e-01 4.49875601e-01 5.62275076e-01 6.80441645e-01 
        </DataArray>
        <DataArray type="Float64" Name="E">
          2.56364101e+05 2.56380819e+05 2.56402715e+05 2.56367132e+05 2.56386283e+05 2.56412574e+05 2.56372202e+05 2.56394394e+05 2.56423780e+05 
        </DataArray>
        <DataArray type="Float64" Name="p">
          1.01413908e+05 1.01421681e+05 1.01430823e+05 1.01413400e+05 1.01422020e+05 1.01432915e+05 1.01413320e+05 1.01422897e+05 1.01434998e+05 
        </DataArray>
        <DataArray type="Float64" Name="a">
          3.40332464e+02 3.40338919e+02 3.40342283e+02 3.40331908e+02 3.40338754e+02 3.40342946e+02 3.40332156e+02 3.40339246e+02 3.40344093e+02 
        </DataArray>
        <DataArray type="Float64" Name="Mach">
          1.99638407e-01 1.99535005e-01 1.99492121e-01 1.99790582e-01 1.99697544e-01 1.99653411e-01 1.99976341e-01 1.99905303e-01 1.99862832e-01 
        </DataArray>
        <DataArray type="Float64" Name="Sensor">
          -5.05837644e+00 -5.05837644e+00 -5.05837644e+00 -5.05837644e+00 -5.05837644e+00 -5.05837644e+00 -5.05837644e+00 -5.05837644e+00 -5.05837644e+00 
        </DataArray>
        <DataArray type="Float64" Name="W_z">
          6.99164240e-02 7.29098287e-02 7.32016752e-02 8.74467564e-02 9.65208478e-02 9.76463536e-02 1.04984888e-01 1.20130007e-01 1.22079514e-01 
        </DataArray>
      </PointData>
    </Piece>
    <Piece NumberOfPoints="9" NumberOfCells="4">
      <Points>
        <DataArray type="Float64" NumberOfComponents="3" format="ascii">
          -5.19999981e+00 8.39999962e+00 0.00000000e+00 
-5.19999981e+00 7.59999990e+00 0.00000000e+00 
-5.19999981e+00 6.80000019e+00 0.00000000e+00 
-4.40000010e+00 8.39999962e+00 0.00000000e+00 
-4.40000010e+00 7.59999990e+00 0.00000000e+00 
-4.40000010e+00 6.80000019e+00 0.00000000e+00 
-3.59999990e+00 8.39999962e+00 0.00000000e+00 
-3.59999990e+00 7.59999990e+00 0.00000000e+00 
-3.59999990e+00 6.80000019e+00 0.00000000e+00 

        </DataArray>
      </Points>
      <Cells>
        <DataArray type="Int32" Name="connectivity" format="ascii">
0 1 4 3
3 4 7 6
1 2 5 4
4 5 8 7

        </DataArray>
        <DataArray type="Int32" Name="offsets" format="ascii">
4 8 12 16 
        </DataArray>
        <DataArray type="UInt8" Name="types" format="ascii">
9 9 9 9 
        </DataArray>
      </Cells>
      <PointData>
        <DataArray type="Float64" Name="rho">
          1.22579157e+00 1.22585670e+00 1.22596782e+00 1.22578001e+00 1.22584299e+00 1.22594245e+00 1.22574999e+00 1.22580373e+00 1.22588018e+00 
        </DataArray>
        <DataArray type="Float64" Name="rhou">
          8.34245665e+01 8.34010351e+01 8.33921858e+01 8.35266409e+01 8.35196727e+01 8.35166159e+01 8.36674810e+01 8.36845455e+01 8.36954844e+01 
        </DataArray>
        <DataArray type="Float64" Name="rhov">
          4.49521145e-01 5.59382982e-01 6.76739422e-01 5.31231977e-01 6.82116381e-01 8.40567123e-01 5.78437209e-01 7.70920420e-01 9.78127218e-01 
        </DataArray>
        <DataArray type="Float64" Name="E">
          2.56371801e+05 2.56394145e+05 2.56423524e+05 2.56376915e+05 2.56399065e+05 2.56425910e+05 2.56379282e+05 2.56399384e+05 2.56421161e+05 
        </DataArray>
        <DataArray type="Float64" Name="p">
          1.01413150e+05 1.01422771e+05 1.01434842e+05 1.01412392e+05 1.01421470e+05 1.01432345e+05 1.01409460e+05 1.01417043e+05 1.01425467e+05 
        </DataArray>
        <DataArray type="Float64" Name="a">
          3.40332043e+02 3.40339143e+02 3.40343970e+02 3.40332374e+02 3.40338865e+02 3.40343303e+02 3.40331622e+02 3.40336885e+02 3.40340408e+02 
        </DataArray>
        <DataArray type="Float64" Name="Mach">
          1.99977337e-01 1.99907719e-01 1.99867634e-01 2.00224868e-01 2.00196681e-01 2.00173958e-01 2.00568594e-01 2.00601313e-01 2.00618118e-01 
        </DataArray>
        <DataArray type="Float64" Name="Sensor">
          -5.11755179e+00 -5.11755179e+00 -5.11755179e+00 -5.11755179e+00 -5.11755179e+00 -5.11755179e+00 -5.11755179e+00 -5.11755179e+00 -5.11755179e+00 
        </DataArray>
        <DataArray type="Float64" Name="W_z">
          1.03417240e-01 1.19510118e-01 1.21681249e-01 1.51877450e-01 1.77295514e-01 1.89708760e-01 2.00331492e-01 2.35069401e-01 2.57719421e-01 
        </DataArray>
      </PointData>
    </Piece>
    <Piece NumberOfPoints="9" NumberOfCells="4">
      <Points>
        <DataArray type="Float64" NumberOfComponents="3" format="ascii">
          -3.59999990e+00 8.39999962e+00 0.00000000e+00 
-3.59999990e+00 7.59999990e+00 0.00000000e+00 
-3.59999990e+00 6.80000019e+00 0.00000000e+00 
-2.79999995e+00 8.39999962e+00 0.00000000e+00 
-2.79999995e+00 7.59999990e+00 0.00000000e+00 
-2.79999995e+00 6.80000019e+00 0.00000000e+00 
-2.00000000e+00 8.39999962e+00 0.00000000e+00 
-2.00000000e+00 7.59999990e+00 0.00000000e+00 
-2.00000000e+00 6.80000019e+00 0.00000000e+00 

        </DataArray>
      </Points>
      <Cells>
        <DataArray type="Int32" Name="connectivity" format="ascii">
0 1 4 3
3 4 7 6
1 2 5 4
4 5 8 7

        </DataArray>
        <DataArray type="Int32" Name="offsets" format="ascii">
4 8 12 16 
        </DataArray>
        <DataArray type="UInt8" Name="types" format="ascii">
9 9 9 9 
        </DataArray>
      </Cells>
      <PointData>
        <DataArray type="Float64" Name="rho">
          1.22574375e+00 1.22579614e+00 1.22587194e+00 1.22568572e+00 1.22572173e+00 1.22576714e+00 1.22558360e+00 1.22560360e+00 1.22561761e+00 
        </DataArray>
        <DataArray type="Float64" Name="rhou">
          8.36661905e+01 8.36836560e+01 8.36948539e+01 8.38500648e+01 8.39024707e+01 8.39396935e+01 8.40557598e+01 8.41573582e+01 8.42361576e+01 
        </DataArray>
        <DataArray type="Float64" Name="rhov">
          5.81140620e-01 7.73257491e-01 9.78595236e-01 5.76446947e-01 8.03264641e-01 1.05905843e+00 5.41379685e-01 7.81246540e-01 1.06645833e+00 
        </DataArray>
        <DataArray type="Float64" Name="E">
          2.56377550e+05 2.56397320e+05 2.56418926e+05 2.56374253e+05 2.56390316e+05 2.56405765e+05 2.56359821e+05 2.56372857e+05 2.56382995e+05 
        </DataArray>
        <DataArray type="Float64" Name="p">
          1.01408795e+05 1.01416233e+05 1.01424581e+05 1.01402398e+05 1.01407372e+05 1.01412497e+05 1.01390899e+05 1.01393293e+05 1.01395111e+05 
        </DataArray>
        <DataArray type="Float64" Name="a">
          3.40331373e+02 3.40336580e+02 3.40340065e+02 3.40328694e+02 3.40332040e+02 3.40334338e+02 3.40323576e+02 3.40324816e+02 3.40325922e+02 
        </DataArray>
        <DataArray type="Float64" Name="Mach">
          2.00566709e-01 2.00600642e-01 2.00618145e-01 2.01018514e-01 2.01140683e-01 2.01227858e-01 2.01530897e-01 2.01774902e-01 2.01968296e-01 
        </DataArray>
        <DataArray type="Float64" Name="Sensor">
          -5.06690641e+00 -5.06690641e+00 -5.06690641e+00 -5.06690641e+00 -5.06690641e+00 -5.06690641e+00 -5.06690641e+00 -5.06690641e+00 -5.06690641e+00 
        </DataArray>
        <DataArray type="Float64" Name="W_z">
          2.16255807e-01 2.51052909e-01 2.73893604e-01 2.43519948e-01 2.96114800e-01 3.38377441e-01 2.70785409e-01 3.41176311e-01 4.02859198e-01 
        </DataArray>
      </PointData>
    </Piece>
    <Piece NumberOfPoints="9" NumberOfCells="4">
      <Points>
        <DataArray type="Float64" NumberOfComponents="3" format="ascii">
          -1.00000000e+01 6.80000019e+00 0.00000000e+00 
-1.00000000e+01 6.00000000e+00 0.00000000e+00 
-1.00000000e+01 5.19999981e+00 0.00000000e+00 
-9.19999981e+00 6.80000019e+00 0.00000000e+00 
-9.19999981e+00 6.00000000e+00 0.00000000e+00 
-9.19999981e+00 5.19999981e+00 0.00000000e+00 
-8.39999962e+00 6.80000019e+00 0.00000000e+00 
-8.39999962e+00 6.00000000e+00 0.00000000e+00 
-8.39999962e+00 5.19999981e+00 0.00000000e+00 

        </DataArray>
      </Points>
      <Cells>