Variables = x, y, u, v, p

Zone, I=416, F=POINT
         -50            0            0            0      38.8866 
         -50     0.013333 -8.09102e-06  1.01719e-08      38.8866 
         -50     0.053333 -2.37375e-05  3.86968e-08      38.8866 
         -50         0.12 -3.61046e-05  7.68061e-08      38.8866 
         -50     0.213332 -4.55395e-05  -2.6117e-08      38.8866 
         -50     0.333332 -4.92292e-05 -4.95141e-07      38.8865 
         -50         0.48 -5.00351e-05  -1.0131e-06      38.8864 
         -50     0.653331 -4.92272e-05 -1.76626e-06      38.8863 
         -50     0.853332   -4.558e-05 -2.95244e-06      38.8861 
         -50         1.08 -4.00409e-05  -3.8396e-06      38.8859 
         -50      1.33333 -3.30318e-05 -4.24339e-06      38.8855 
         -50      1.61333  -2.5689e-05 -5.01729e-06       38.885 
         -50         1.92 -1.39834e-05 -4.82681e-06      38.8843 
         -50      2.25333 -1.20348e-05 -6.23175e-06      38.8835 
         -50      2.61333 -1.73264e-05 -6.90321e-06      38.8824 
         -50            3 -1.70877e-05  -3.9283e-06      38.8811 
         -25            0           -0           -0      37.3692 
         -25     0.013333 -2.65876e-07  6.07939e-09      37.3692 
         -25     0.053333  1.48728e-06  6.19797e-08      37.3692 
         -25         0.12   4.7995e-06  3.30335e-07      37.3692 
         -25     0.213332  2.70035e-06  1.01365e-06      37.3692 
         -25     0.333332 -1.66176e-06   2.1905e-06      37.3692 
         -25         0.48 -4.83932e-06  3.79577e-06      37.3692 
         -25     0.653331 -5.50874e-06  5.66814e-06      37.3691 
         -25     0.853332  -5.3945e-06  7.57065e-06      37.3691 
         -25         1.08 -6.99449e-06  9.14779e-06       37.369 
         -25      1.33333 -1.01993e-05  1.04015e-05      37.3688 
         -25      1.61333 -1.46449e-05  1.11356e-05      37.3686 
         -25         1.92 -1.66637e-05  1.18351e-05      37.3684 
         -25      2.25333 -2.15644e-05   1.1241e-05      37.3681 
         -25      2.61333 -2.47983e-05  1.11557e-05      37.3677 
         -25            3 -2.01547e-05  1.38886e-05      37.3672 
           0            0            0            0      36.1093 
           0     0.013333 -4.34258e-05  1.30426e-05      36.1105 
           0     0.053333 -4.35526e-05  1.04309e-05      36.1129 
           0         0.12 -6.04151e-05  5.40935e-06      36.1155 
           0     0.213332 -7.76633e-05   6.1085e-06      36.1183 
           0     0.333332 -8.56945e-05  8.00829e-06      36.1213 
           0         0.48 -8.69905e-05  1.04153e-05      36.1242 
           0     0.653331 -8.33838e-05  1.32023e-05      36.1271 
           0     0.853332 -7.42755e-05   1.6265e-05        36.13 
           0         1.08 -6.22967e-05  1.93423e-05      36.1327 
           0      1.33333 -5.05469e-05  2.20769e-05      36.1354 
           0      1.61333 -3.84349e-05  2.40827e-05       36.138 
           0         1.92 -2.74301e-05  2.50801e-05      36.1405 
           0      2.25333 -2.20734e-05  2.50257e-05      36.1428 
           0      2.61333 -2.33411e-05  2.34451e-05       36.145 
           0            3 -2.44554e-05  2.40138e-05      36.1471 
          20            0 -3.19073e-05  0.000139479      35.3615 
          20     0.013333 -3.72914e-05  0.000140453      35.3615 
          20     0.053333 -5.39568e-05   0.00014333      35.3615 
          20         0.12 -8.33271e-05   0.00014798      35.3614 
          20     0.213332 -0.000127184  0.000154269      35.3614 
          20     0.333332 -0.000185514  0.000162096      35.3614 
          20         0.48 -0.000243783  0.000171955      35.3614 
          20     0.653331 -0.000272847  0.000184801      35.3613 
          20     0.853332 -0.000260273    0.0002003      35.3613 
          20         1.08 -0.000222442  0.000215676      35.3612 
          20      1.33333 -0.000186012   0.00022685      35.3611 
          20      1.61333  -0.00015564  0.000231408       35.361 
          20         1.92  -0.00013149  0.000227899      35.3609 
          20      2.25333   -0.0001121  0.000217194      35.3608 
          20      2.61333 -9.57399e-05  0.000202106      35.3606 
          20            3 -8.12856e-05  0.000185833      35.3604 
          40            0  -0.00227246   0.00199896      34.6309 
          40     0.013333  -0.00213991   0.00198701      34.6309 
          40     0.053333  -0.00174731   0.00194714      34.6308 
          40         0.12  -0.00112263   0.00186685      34.6306 
          40     0.213332 -0.000354858   0.00172437      34.6304 
          40     0.333332  0.000369166   0.00149087      34.6302 
          40         0.48  0.000819812   0.00114119      34.6298 
          40     0.653331  0.000933827   0.00067312      34.6294 
          40     0.853332  0.000957947  0.000120451      34.6289 
          40         1.08   0.00120818 -0.000455137      34.6284 
          40      1.33333   0.00171055 -0.000988464      34.6278 
          40      1.61333   0.00226201  -0.00142843      34.6271 
          40         1.92   0.00268262  -0.00174075      34.6265 
          40      2.25333   0.00286489  -0.00191314      34.6257 
          40      2.61333   0.00279962  -0.00196029      34.6249 
          40            3   0.00255733  -0.00191384       34.624 
          60            0           -0           -0      33.8598 
          60     0.013333  -0.00213154 -7.83652e-07      33.8598 
          60     0.053333  -0.00703796 -1.90672e-05      33.8598 
          60         0.12   -0.0112449 -0.000126322      33.8598 
          60     0.213332   -0.0124903 -0.000433963      33.8598 
          60     0.333332   -0.0120556  -0.00100121      33.8598 
          60         0.48   -0.0126216  -0.00179538      33.8598 
          60     0.653331   -0.0142949  -0.00269666      33.8598 
          60     0.853332     -0.01468   -0.0035545      33.8597 
          60         1.08   -0.0134314   -0.0043468      33.8598 
          60      1.33333    -0.010437  -0.00501891      33.8598 
          60      1.61333   -0.0062553  -0.00545985      33.8599 
          60         1.92  -0.00225527  -0.00560951        33.86 
          60      2.25333   0.00100726  -0.00546464      33.8602 
          60      2.61333   0.00314702  -0.00510361      33.8605 
          60            3   0.00408467  -0.00460179      33.8607 
          80            0  -5.0984e-20  3.76299e-25      33.1319 
          80     0.013333 -9.25056e-06 -2.64992e-06      33.1319 
          80     0.053333  0.000566712 -3.76736e-05      33.1319 
          80         0.12   0.00237158 -0.000153724      33.1319 
          80     0.213332   0.00460274 -0.000354903      33.1319 
          80     0.333332   0.00597806 -0.000590716      33.1319 
          80         0.48   0.00630163 -0.000831447      33.1319 
          80     0.653331   0.00554236  -0.00113631      33.1319 
          80     0.853332   0.00292708  -0.00160917      33.1319 
          80         1.08 -0.000359573  -0.00219903      33.1319 
          80      1.33333  -0.00159904  -0.00269496      33.1318 
          80      1.61333  -0.00131125  -0.00300662      33.1317 
          80         1.92  -0.00114692  -0.00312976      33.1316 
          80      2.25333  -0.00106123  -0.00307013      33.1314 
          80      2.61333 -0.000989601  -0.00286487      33.1313 
          80            3 -0.000859903  -0.00256256      33.1311 
         100            0           -0           -0       32.419 
         100     0.013333   0.00059151 -7.80648e-07       32.419 
         100     0.053333   0.00220687 -9.17357e-06       32.419 
         100         0.12   0.00417995  -2.5784e-05       32.419 
         100     0.213332   0.00555217 -2.56812e-05       32.419 
         100     0.333332   0.00600382  2.33099e-05       32.419 
         100         0.48   0.00606465  0.000126682       32.419 
         100     0.653331   0.00604084  0.000245115       32.419 
         100     0.853332   0.00504173   0.00029122       32.419 
         100         1.08   0.00254894   0.00021156       32.419 
         100      1.33333    0.0005174  8.48408e-05      32.4189 
         100      1.61333 -0.000141082  5.13361e-06      32.4189 
         100         1.92 -0.000706982  -4.7691e-05      32.4188 
         100      2.25333   -0.0011348 -8.81749e-05      32.4186 
         100      2.61333  -0.00135315 -0.000112914      32.4184 
         100            3  -0.00144102 -0.000125275      32.4183 
         150            0 -5.32681e-19  2.31905e-25       30.672 
         150     0.013333 -0.000742597  2.45672e-07       30.672 
         150     0.053333  -0.00261981  1.72789e-06       30.672 
         150         0.12  -0.00464564 -4.54081e-06       30.672 
         150     0.213332  -0.00575703 -4.77616e-05       30.672 
         150     0.333332  -0.00570294 -0.000158585       30.672 
         150         0.48  -0.00510265   -0.0003418       30.672 
         150     0.653331  -0.00455617 -0.000573953       30.672 
         150     0.853332  -0.00403938 -0.000816275       30.672 
         150         1.08  -0.00327504  -0.00103626       30.672 
         150      1.33333   -0.0023543  -0.00122137       30.672 
         150      1.61333  -0.00138684  -0.00136896      30.6721 
         150         1.92 -0.000444351  -0.00146492      30.6721 
         150      2.25333  0.000317928  -0.00150183      30.6722 
         150      2.61333  0.000871064  -0.00148275      30.6723 
         150            3    0.0012353  -0.00141141      30.6724 
         200            0           -0           -0       28.953 
         200     0.013333 -0.000799705 -1.06602e-06       28.953 
         200     0.053333  -0.00253157 -1.71463e-05       28.953 
         200         0.12  -0.00377153 -8.42388e-05       28.953 
         200     0.213332   -0.0036285 -0.000243816       28.953 
         200     0.333332  -0.00245275 -0.000514056       28.953 
         200         0.48  -0.00123339 -0.000882649       28.953 
         200     0.653331 -0.000665452  -0.00132612       28.953 
         200     0.853332 -0.000811775  -0.00181796       28.953 
         200         1.08  -0.00112428  -0.00231475       28.953 
         200      1.33333  -0.00104869  -0.00276323       28.953 
         200      1.61333 -0.000710471  -0.00313051       28.953 
         200         1.92 -0.000390258  -0.00338696       28.953 
         200      2.25333 -8.17773e-05  -0.00351032       28.953 
         200      2.61333  0.000176281  -0.00349804       28.953 
         200            3  0.000353603  -0.00336118      28.9531 
         250            0           -0           -0      27.2386 
         250     0.013333 -0.000472319  1.02691e-06      27.2386 
         250     0.053333  -0.00195256  1.45319e-05      27.2386 
         250         0.12  -0.00429915  5.95673e-05      27.2386 
         250     0.213332  -0.00678958  0.000139348      27.2386 
         250     0.333332  -0.00853302   0.00023241      27.2386 
         250         0.48  -0.00922561  0.000311265      27.2386 
         250     0.653331  -0.00915484  0.000365237      27.2386 
         250     0.853332  -0.00860474  0.000403483      27.2386 
         250         1.08  -0.00761738  0.000439584      27.2386 
         250      1.33333  -0.00627558  0.000477728      27.2386 
         250      1.61333  -0.00474926  0.000509506      27.2386 
         250         1.92  -0.00305762  0.000528902      27.2387 
         250      2.25333  -0.00141751  0.000533934      27.2388 
         250      2.61333  3.70845e-05  0.000521545      27.2389 
         250            3   0.00121679  0.000493434       27.239 
         300            0  8.67593e-20  2.19193e-26      25.5298 
         300     0.013333  0.000204197  1.33753e-06      25.5298 
         300     0.053333  0.000401523  1.97605e-05      25.5298 
         300         0.12 -9.84678e-05  8.67686e-05      25.5298 
         300     0.213332  -0.00132844   0.00022329      25.5298 
         300     0.333332  -0.00262079  0.000422623      25.5298 
         300         0.48  -0.00339377  0.000664714      25.5298 
         300     0.653331  -0.00348859  0.000941086      25.5298 
         300     0.853332  -0.00291058   0.00125616      25.5298 
         300         1.08  -0.00190593   0.00159992      25.5298 
         300      1.33333  -0.00108457   0.00193331      25.5298 
         300      1.61333 -0.000646491   0.00221769      25.5298 
         300         1.92 -0.000235092   0.00243408      25.5298 
         300      2.25333  0.000131917   0.00256745      25.5299 
         300      2.61333  0.000424993   0.00260793      25.5299 
         300            3  0.000644142   0.00255568        25.53 
         350            0            0            0      23.8193 
         350     0.013333 -0.000511896  4.16782e-07      23.8193 
         350     0.053333  -0.00189861  5.04253e-06      23.8193 
         350         0.12  -0.00363365  1.49296e-05      23.8193 
         350     0.213332  -0.00495626  1.64708e-05      23.8192 
         350     0.333332  -0.00545505 -1.15566e-05      23.8192 
         350         0.48  -0.00537438 -7.81984e-05      23.8192 
         350     0.653331  -0.00516092 -0.000172653      23.8192 
         350     0.853332  -0.00489131 -0.000270622      23.8192 
         350         1.08  -0.00430177  -0.00034743      23.8192 
         350      1.33333  -0.00340538 -0.000398259      23.8193 
         350      1.61333  -0.00252702 -0.000438282      23.8193 
         350         1.92  -0.00166585 -0.000471299      23.8193 
         350      2.25333 -0.000817093 -0.000491257      23.8194 
         350      2.61333 -2.79063e-05  -0.00049657      23.8195 
         350            3  0.000635995 -0.000486903      23.8196 
         400            0            0            0        22.11 
         400     0.013333 -0.000680387 -3.06965e-07        22.11 
         400     0.053333  -0.00228972 -5.98012e-06        22.11 
         400         0.12  -0.00377032  -3.5636e-05        22.11 
         400     0.213332  -0.00420031 -0.000120128        22.11 
         400     0.333332  -0.00357268 -0.000281582        22.11 
         400         0.48  -0.00266301 -0.000515511        22.11 
         400     0.653331  -0.00216377 -0.000798125        22.11 
         400     0.853332  -0.00213254  -0.00109959        22.11 
         400         1.08  -0.00207892  -0.00138601        22.11 
         400      1.33333  -0.00164527  -0.00163254        22.11 
         400      1.61333  -0.00108669  -0.00183911        22.11 
         400         1.92 -0.000619625  -0.00200493        22.11 
         400      2.25333 -0.000193473  -0.00211557        22.11 
         400      2.61333  0.000198266  -0.00216094      22.1101 
         400            3  0.000516536  -0.00213694      22.1102 
         450            0 -2.93514e-19 -5.14676e-27       20.399 
         450     0.013333 -0.000815396  1.80568e-08       20.399 
         450     0.053333  -0.00285622 -1.40577e-06       20.399 
         450         0.12  -0.00503063 -1.70211e-05       20.399 
         450     0.213332  -0.00619441  -7.6822e-05       20.399 
         450     0.333332  -0.00607141  -0.00020914       20.399 
         450         0.48  -0.00536613 -0.000416319       20.399 
         450     0.653331  -0.00488665 -0.000675495       20.399 
         450     0.853332  -0.00478005 -0.000952147       20.399 
         450         1.08  -0.00451196  -0.00120577       20.399 
         450      1.33333  -0.00367385  -0.00140875       20.399 
         450      1.61333  -0.00264093  -0.00156814       20.399 
         450         1.92  -0.00173928  -0.00169455      20.3991 
         450      2.25333 -0.000888753  -0.00177806      20.3991 
         450      2.61333  -7.5167e-05  -0.00180982      20.3992 
         450            3  0.000630038  -0.00178579      20.3993 
         500            0            0            0      18.6868 
         500     0.013333 -0.000863926  1.19054e-06      18.6868 
         500     0.053333  -0.00337873  1.61316e-05      18.6868 
         500         0.12  -0.00695034  6.11845e-05      18.6868 
         500     0.213332   -0.0102368  0.000126565      18.6868 
         500     0.333332   -0.0120185  0.000174376      18.6868 
         500         0.48   -0.0122219  0.000172403      18.6868 
         500     0.653331   -0.0116198  0.000122471      18.6868 
         500     0.853332   -0.0107193  5.69694e-05      18.6868 
         500         1.08  -0.00936833  1.51298e-05      18.6868 
         500      1.33333  -0.00754084  8.55217e-06      18.6868 
         500      1.61333  -0.00575502  1.18429e-05      18.6868 
         500         1.92  -0.00411857  5.62862e-06      18.6869 
         500      2.25333  -0.00247469 -6.27794e-06       18.687 
         500      2.61333 -0.000839804 -2.08027e-05      18.6871 
         500            3  0.000643719 -3.69483e-05      18.6873 
         550            0           -0           -0       16.981 
         550     0.013333  0.000981763  4.20126e-07       16.981 
         550     0.053333   0.00338836  7.54438e-06       16.981 
         550         0.12   0.00589846  4.20143e-05       16.981 
         550     0.213332   0.00728147  0.000136272       16.981 
         550     0.333332   0.00728625  0.000315453       16.981 
         550         0.48    0.0065961  0.000581423       16.981 
         550     0.653331   0.00603361  0.000918824       16.981 
         550     0.853332   0.00596858   0.00130783       16.981 
         550         1.08    0.0061585   0.00172073       16.981 
         550      1.33333   0.00594189   0.00211643       16.981 
         550      1.61333   0.00503986   0.00246175       16.981 
         550         1.92   0.00391545   0.00274864       16.981 
         550      2.25333   0.00275256   0.00296788       16.981 
         550      2.61333   0.00158033   0.00310449      16.9809 
         550            3  0.000448776   0.00314594      16.9808 
         600            0            0            0      15.2672 
         600     0.013333 -6.44991e-05  -2.4747e-07      15.2672 
         600     0.053333 -0.000159874 -3.69896e-06      15.2672 
         600         0.12  -0.00011165 -1.65563e-05      15.2672 
         600     0.213332  0.000117339 -4.36396e-05      15.2672 
         600     0.333332  0.000391663 -8.44986e-05      15.2672 
         600         0.48  0.000559994 -0.000134719      15.2672 
         600     0.653331  0.000584249 -0.000190661      15.2672 
         600     0.853332  0.000492212 -0.000252276      15.2672 
         600         1.08  0.000294505 -0.000321514      15.2672 
         600      1.33333  4.92441e-05 -0.000396014      15.2672 
         600      1.61333 -9.59411e-05 -0.000465765      15.2672 
         600         1.92 -0.000128751 -0.000522381      15.2672 
         600      2.25333  -0.00013874 -0.000563939      15.2672 
         600      2.61333 -0.000152161 -0.000588717      15.2672 
         600            3 -0.000154648 -0.000594823      15.2672 
         650            0           -0           -0      13.5539 
         650     0.013333  0.000278701  3.11245e-07      13.5539 
         650     0.053333  0.000890165  5.09206e-06      13.5539 
         650         0.12   0.00131359  2.58394e-05      13.5539 
         650     0.213332   0.00113451  7.81371e-05      13.5539 
         650     0.333332  0.000404308  0.000172237      13.5539 
         650         0.48 -0.000447425  0.000305706      13.5539 
         650     0.653331  -0.00102474  0.000466596      13.5539 
         650     0.853332  -0.00122695  0.000641833      13.5539 
         650         1.08  -0.00119365  0.000820814      13.5539 
         650      1.33333   -0.0011039  0.000995392      13.5539 
         650      1.61333  -0.00101361   0.00116034      13.5539 
         650         1.92 -0.000895753   0.00131023      13.5539 
         650      2.25333 -0.000751121   0.00143586      13.5539 
         650      2.61333 -0.000587445   0.00152846      13.5539 
         650            3 -0.000411765   0.00158072      13.5539 
         700            0            0            0      11.8394 
         700     0.013333 -0.000603226 -5.25222e-07      11.8394 
         700     0.053333  -0.00198924  -8.6674e-06      11.8394 
         700         0.12  -0.00317728 -4.42878e-05      11.8394 
         700     0.213332  -0.00337644  -0.00013422      11.8394 
         700     0.333332  -0.00261298 -0.000295467      11.8394 
         700         0.48   -0.0015863 -0.000523589      11.8394 
         700     0.653331 -0.000961446  -0.00080024      11.8394 
         700     0.853332 -0.000938403  -0.00110698      11.8394 
         700         1.08  -0.00127228  -0.00142591      11.8394 
         700      1.33333  -0.00148212  -0.00173399      11.8394 
         700      1.61333  -0.00131394  -0.00201138      11.8394 
         700         1.92  -0.00100899  -0.00225195      11.8394 
         700      2.25333 -0.000714738  -0.00244862      11.8394 
         700      2.61333 -0.000439134  -0.00258954      11.8394 
         700            3  -0.00016456  -0.00266262      11.8395 
         750            0           -0           -0      10.1254 
         750     0.013333  0.000638073  8.53391e-07      10.1254 
         750     0.053333   0.00201412  1.36083e-05      10.1254 
         750         0.12   0.00293014  6.66915e-05      10.1254 
         750     0.213332   0.00253134  0.000194309      10.1254 
         750     0.333332   0.00104638  0.000413915      10.1254 
         750         0.48 -0.000552035  0.000715035      10.1254 
         750     0.653331  -0.00146492   0.00107308      10.1254 
         750     0.853332  -0.00149085   0.00146814      10.1254 
         750         1.08 -0.000905436   0.00188405      10.1254 
         750      1.33333 -0.000298748   0.00229503      10.1254 
         750      1.61333 -0.000127138   0.00267125      10.1254 
         750         1.92 -0.000193164   0.00299933      10.1254 
         750      2.25333 -0.000233202   0.00327081      10.1254 
         750      2.61333 -0.000214249   0.00347146      10.1254 
         750            3 -0.000191868   0.00358515      10.1253 
         800            0 -2.56286e-19  1.10512e-26      8.40967 
         800     0.013333 -0.000694155 -7.57401e-07      8.40967 
         800     0.053333  -0.00225375 -1.21543e-05      8.40967 
         800         0.12  -0.00350215 -6.00171e-05      8.40967 
         800     0.213332  -0.00355718 -0.000176097      8.40967 
         800     0.333332  -0.00253815 -0.000377415      8.40967 
         800         0.48  -0.00130262 -0.000655667      8.40967 
         800     0.653331 -0.000605726  -0.00098982      8.40967 
         800     0.853332 -0.000685994  -0.00136328      8.40967 
         800         1.08  -0.00133007  -0.00176173      8.40967 
         800      1.33333  -0.00194684  -0.00215825      8.40967 
         800      1.61333  -0.00197724   -0.0025194      8.40967 
         800         1.92    -0.001623  -0.00283112      8.40967 
         800      2.25333  -0.00123792  -0.00308897      8.40968 
         800      2.61333 -0.000902931  -0.00328155      8.40969 
         800            3 -0.000554435  -0.00339415       8.4097 
         850            0            0            0      6.69424 
         850     0.013333  0.000516807  9.75881e-07      6.69424 
         850     0.053333   0.00152667  1.53856e-05      6.69424 
         850         0.12   0.00186272  7.42999e-05      6.69425 
         850     0.213332  0.000795355  0.000213132      6.69425 
         850     0.333332  -0.00124436  0.000446908      6.69425 
         850         0.48  -0.00311965  0.000759631      6.69425 
         850     0.653331  -0.00401273   0.00112147      6.69425 
         850     0.853332  -0.00382287   0.00151104      6.69425 
         850         1.08    -0.002926    0.0019149      6.69425 
         850      1.33333  -0.00198194   0.00231032      6.69425 
         850      1.61333  -0.00153772   0.00266717      6.69425 
         850         1.92  -0.00140837   0.00297247      6.69426 
         850      2.25333  -0.00123275   0.00322351      6.69426 
         850      2.61333 -0.000947482   0.00341103      6.69427 
         850            3 -0.000643132   0.00352071      6.69428 
         900            0           -0           -0       4.9757 
         900     0.013333  -0.00178758 -4.22365e-07       4.9757 
         900     0.053333  -0.00628086 -8.34533e-06       4.9757 
         900         0.12   -0.0112212 -5.14115e-05       4.9757 
         900     0.213332   -0.0141767 -0.000182472       4.9757 
         900     0.333332   -0.0141631 -0.000455528       4.9757 
         900         0.48   -0.0121675 -0.000889674      4.97569 
         900     0.653331  -0.00997476  -0.00146114      4.97569 
         900     0.853332  -0.00870641  -0.00212581      4.97568 
         900         1.08  -0.00832302   -0.0028368      4.97568 
         900      1.33333  -0.00799519  -0.00354406      4.97568 
         900      1.61333  -0.00702411  -0.00420502       4.9757 
         900         1.92    -0.005624   -0.0048047      4.97572 
         900      2.25333  -0.00419761  -0.00533268      4.97578 
         900      2.61333  -0.00282085  -0.00576588      4.97585 
         900            3  -0.00141902  -0.00607459      4.97596 
         950            0            0            0       3.2695 
         950     0.013333  0.000853527 -2.04407e-06       3.2695 
         950     0.053333   0.00374778 -2.96738e-05       3.2695 
         950         0.12   0.00892166 -0.000127351       3.2695 
         950     0.213332    0.0153389 -0.000318824       3.2695 
         950     0.333332    0.0209397 -0.000580672       3.2695 
         950         0.48     0.024227 -0.000861386      3.26951 
         950     0.653331    0.0252157  -0.00112485      3.26952 
         950     0.853332    0.0247267  -0.00137367      3.26953 
         950         1.08    0.0232268  -0.00163887      3.26953 
         950      1.33333    0.0207284  -0.00194759      3.26953 
         950      1.61333    0.0175788  -0.00229154      3.26951 
         950         1.92     0.014503  -0.00262902      3.26946 
         950      2.25333    0.0115055  -0.00292953      3.26938 
         950      2.61333   0.00841894  -0.00317651      3.26925 
         950            3   0.00519652  -0.00335837      3.26907 
        1000            0           -0           -0      1.54835 
        1000     0.013333   0.00144357  8.19942e-07      1.54835 
        1000     0.053333   0.00495885    1.372e-05      1.54835 
        1000         0.12   0.00856321  7.14131e-05      1.54836 
        1000     0.213332    0.0103794  0.000221874      1.54836 
        1000     0.333332   0.00992827  0.000503234      1.54836 
        1000         0.48    0.0082117   0.00092062      1.54836 
        1000     0.653331   0.00661786   0.00145062      1.54836 
        1000     0.853332   0.00594772   0.00206373      1.54837 
        1000         1.08   0.00621209   0.00273343      1.54837 
        1000      1.33333   0.00674937   0.00342435      1.54837 
        1000      1.61333   0.00668162   0.00408887      1.54836 
        1000         1.92   0.00579515   0.00469178      1.54835 
        1000      2.25333   0.00465135   0.00522082      1.54832 
        1000      2.61333    0.0035049   0.00565863      1.54829 
        1000            3   0.00231175   0.00598148      1.54823 
