Variables = x, y, u, v, p

Zone, I=416, F=POINT
         -50            0            0            0     -67.7432 
         -50     0.013333 -0.000271618 -5.79491e-08     -67.7432 
         -50     0.053333  -0.00025691 -2.45261e-07     -67.7432 
         -50         0.12 -0.000254689 -6.33728e-07     -67.7432 
         -50     0.213332  -0.00025501 -1.38042e-06     -67.7431 
         -50     0.333332 -0.000253704 -2.51369e-06     -67.7431 
         -50         0.48  -0.00025197 -3.39909e-06     -67.7429 
         -50     0.653331 -0.000250638 -5.41318e-06     -67.7427 
         -50     0.853332 -0.000249428  -6.6215e-06     -67.7424 
         -50         1.08 -0.000248037 -8.26958e-06     -67.7419 
         -50      1.33333 -0.000245537 -9.75839e-06     -67.7413 
         -50      1.61333 -0.000241933  -1.1296e-05     -67.7404 
         -50         1.92 -0.000240841 -1.30989e-05     -67.7392 
         -50      2.25333 -0.000241386 -1.40233e-05     -67.7377 
         -50      2.61333 -0.000240463 -1.41178e-05     -67.7358 
         -50            3 -0.000238049 -1.48197e-05     -67.7335 
         -25            0           -0           -0     -65.0885 
         -25     0.013333 -0.000197157 -1.95161e-08     -65.0885 
         -25     0.053333 -0.000182108 -6.21004e-08     -65.0885 
         -25         0.12 -0.000177063  -8.3368e-08     -65.0885 
         -25     0.213332 -0.000176692 -4.59455e-08     -65.0885 
         -25     0.333332 -0.000176887   3.8513e-08     -65.0884 
         -25         0.48 -0.000176241  1.41164e-07     -65.0884 
         -25     0.653331  -0.00017531  3.47104e-07     -65.0883 
         -25     0.853332 -0.000175156  3.74048e-07     -65.0882 
         -25         1.08 -0.000176359  1.46004e-07      -65.088 
         -25      1.33333 -0.000178183 -2.65766e-08     -65.0878 
         -25      1.61333 -0.000179502 -3.88725e-07     -65.0875 
         -25         1.92  -0.00017949 -1.36823e-06      -65.087 
         -25      2.25333 -0.000181708 -2.63348e-06     -65.0865 
         -25      2.61333 -0.000187642 -5.11299e-06     -65.0858 
         -25            3 -0.000193889 -9.23908e-06     -65.0849 
           0            0            0            0     -62.8879 
           0     0.013333 -0.000588688  0.000339097     -62.8907 
           0     0.053333 -0.000344946   0.00018151     -62.8948 
           0         0.12 -0.000256052  0.000120502     -62.8995 
           0     0.213332 -0.000211506  9.32083e-05     -62.9045 
           0     0.333332 -0.000186765  7.56878e-05     -62.9096 
           0         0.48 -0.000171279  6.21847e-05     -62.9147 
           0     0.653331 -0.000162555   5.1583e-05     -62.9198 
           0     0.853332 -0.000158539  4.29528e-05     -62.9249 
           0         1.08 -0.000157461    3.581e-05     -62.9297 
           0      1.33333 -0.000158158  2.99732e-05     -62.9345 
           0      1.61333 -0.000159259  2.51181e-05      -62.939 
           0         1.92 -0.000159962  2.11826e-05     -62.9433 
           0      2.25333 -0.000163669  1.77142e-05     -62.9474 
           0      2.61333 -0.000172949  1.37309e-05     -62.9513 
           0            3 -0.000177823  1.33887e-05      -62.955 
          20            0 -0.000265755  0.000156089     -61.5848 
          20     0.013333 -0.000245378  0.000154895     -61.5848 
          20     0.053333 -0.000183164  0.000150784     -61.5848 
          20         0.12 -7.77373e-05  0.000142034     -61.5848 
          20     0.213332    6.586e-05  0.000125433     -61.5848 
          20     0.333332  0.000226197  9.62516e-05     -61.5847 
          20         0.48  0.000344949  4.94799e-05     -61.5847 
          20     0.653331   0.00039518 -1.51556e-05     -61.5846 
          20     0.853332  0.000390728 -9.15325e-05     -61.5845 
          20         1.08  0.000370377 -0.000169054     -61.5844 
          20      1.33333   0.00035307 -0.000238572     -61.5843 
          20      1.61333  0.000323618 -0.000294214     -61.5841 
          20         1.92  0.000277868 -0.000330726     -61.5839 
          20      2.25333  0.000217637  -0.00034685     -61.5836 
          20      2.61333  0.000156448 -0.000344332     -61.5833 
          20            3  0.000102622 -0.000328155      -61.583 
          40            0  -0.00174779  -0.00171781     -60.3189 
          40     0.013333  -0.00165256  -0.00172841     -60.3189 
          40     0.053333  -0.00135659  -0.00176073     -60.3188 
          40         0.12 -0.000829045   -0.0018165     -60.3185 
          40     0.213332 -3.43241e-05  -0.00190061     -60.3182 
          40     0.333332  0.000992699   -0.0020266     -60.3178 
          40         0.48   0.00200636  -0.00222179     -60.3172 
          40     0.653331   0.00256163  -0.00251407     -60.3165 
          40     0.853332   0.00245931  -0.00288921     -60.3155 
          40         1.08   0.00205073  -0.00326784     -60.3144 
          40      1.33333   0.00170798  -0.00355244     -60.3131 
          40      1.61333   0.00147638  -0.00367957     -60.3115 
          40         1.92   0.00129276  -0.00362641     -60.3098 
          40      2.25333   0.00112335  -0.00340768     -60.3078 
          40      2.61333  0.000954471  -0.00306998     -60.3057 
          40            3  0.000799846  -0.00267261     -60.3034 
          60            0           -0           -0     -58.9686 
          60     0.013333   0.00147005 -1.32276e-06     -58.9686 
          60     0.053333   0.00554866 -1.22598e-05     -58.9686 
          60         0.12   0.00975248 -1.08891e-05     -58.9686 
          60     0.213332    0.0117869  8.64438e-05     -58.9686 
          60     0.333332    0.0119015  0.000353684     -58.9686 
          60         0.48    0.0120306  0.000771965     -58.9686 
          60     0.653331     0.012504   0.00121931     -58.9686 
          60     0.853332    0.0120883   0.00158542     -58.9685 
          60         1.08    0.0105953   0.00189504     -58.9685 
          60      1.33333    0.0076326   0.00214215     -58.9685 
          60      1.61333   0.00394373   0.00229542     -58.9686 
          60         1.92   0.00052012   0.00234487     -58.9687 
          60      2.25333  -0.00207694   0.00228518     -58.9689 
          60      2.61333  -0.00362487   0.00215445     -58.9691 
          60            3  -0.00423352   0.00197198     -58.9692 
          80            0 -1.16843e-19 -1.72403e-24     -57.6926 
          80     0.013333  9.32082e-05  1.10715e-06     -57.6926 
          80     0.053333  0.000466803  1.59023e-05     -57.6926 
          80         0.12  0.000532188  6.46993e-05     -57.6926 
          80     0.213332  0.000482933    0.0001455     -57.6926 
          80     0.333332  0.000759533  0.000232195     -57.6926 
          80         0.48   0.00138688  0.000322969     -57.6926 
          80     0.653331   0.00260449  0.000475849     -57.6926 
          80     0.853332   0.00477039  0.000739445     -57.6925 
          80         1.08   0.00622033   0.00101276     -57.6925 
          80      1.33333   0.00544279   0.00115621     -57.6925 
          80      1.61333   0.00369292   0.00119321     -57.6924 
          80         1.92   0.00190509   0.00115599     -57.6924 
          80      2.25333  0.000514052   0.00105382     -57.6923 
          80      2.61333 -0.000437576  0.000911409     -57.6922 
          80            3  -0.00111759  0.000746821     -57.6922 
         100            0           -0           -0     -56.4499 
         100     0.013333  -0.00117832 -8.87094e-07     -56.4499 
         100     0.053333  -0.00351207 -1.63296e-05     -56.4499 
         100         0.12  -0.00531577 -9.13851e-05     -56.4499 
         100     0.213332  -0.00529966 -0.000290038     -56.4499 
         100     0.333332  -0.00398523 -0.000646248     -56.4499 
         100         0.48   -0.0030474   -0.0011408     -56.4499 
         100     0.653331  -0.00342812  -0.00170694     -56.4499 
         100     0.853332  -0.00366782  -0.00220476     -56.4499 
         100         1.08  -0.00184818  -0.00250815     -56.4498 
         100      1.33333 -4.86353e-05  -0.00269026     -56.4498 
         100      1.61333  0.000336823   -0.0028523     -56.4497 
         100         1.92  0.000563804  -0.00292816     -56.4496 
         100      2.25333  0.000750159  -0.00288809     -56.4495 
         100      2.61333  0.000813737  -0.00274669     -56.4494 
         100            3  0.000812577  -0.00252819     -56.4492 
         150            0  2.73592e-19 -4.27306e-25      -53.404 
         150     0.013333  0.000655428 -5.73797e-07      -53.404 
         150     0.053333   0.00272076  -6.4653e-06      -53.404 
         150         0.12   0.00509672 -1.53054e-05      -53.404 
         150     0.213332   0.00657518   5.5865e-07      -53.404 
         150     0.333332    0.0066952  7.83995e-05      -53.404 
         150         0.48   0.00601351  0.000229935      -53.404 
         150     0.653331   0.00520489  0.000432588      -53.404 
         150     0.853332    0.0043864  0.000649035      -53.404 
         150         1.08   0.00346357  0.000854411      -53.404 
         150      1.33333   0.00247663   0.00103526      -53.404 
         150      1.61333   0.00131896   0.00117916      -53.404 
         150         1.92   0.00016902   0.00127365     -53.4041 
         150      2.25333 -0.000683702   0.00131751     -53.4042 
         150      2.61333  -0.00125117   0.00131351     -53.4043 
         150            3  -0.00163094   0.00126137     -53.4045 
         200            0           -0           -0     -50.4042 
         200     0.013333  0.000652549  1.73239e-06     -50.4042 
         200     0.053333   0.00219685  2.68106e-05     -50.4042 
         200         0.12   0.00290253  0.000125239     -50.4042 
         200     0.213332    0.0020722  0.000343987     -50.4042 
         200     0.333332  0.000462557  0.000691377     -50.4042 
         200         0.48 -0.000768674    0.0011418     -50.4042 
         200     0.653331  -0.00102668   0.00166876     -50.4042 
         200     0.853332 -0.000375316   0.00224963     -50.4042 
         200         1.08   0.00044785   0.00283502     -50.4042 
         200      1.33333  0.000667421   0.00335508     -50.4042 
         200      1.61333  0.000498557   0.00376891     -50.4042 
         200         1.92  0.000384496   0.00404665     -50.4042 
         200      2.25333  0.000238924   0.00416419     -50.4042 
         200      2.61333  7.62723e-05   0.00411969     -50.4042 
         200            3 -5.31383e-05   0.00392937     -50.4041 
         250            0           -0           -0     -47.4172 
         250     0.013333 -0.000206677  6.54787e-07     -47.4172 
         250     0.053333 -0.000540175  9.21866e-06     -47.4172 
         250         0.12  -0.00122404  3.75884e-05     -47.4172 
         250     0.213332  -0.00201831  8.82645e-05     -47.4172 
         250     0.333332  -0.00257372  0.000151561     -47.4172 
         250         0.48  -0.00279007  0.000218401     -47.4172 
         250     0.653331  -0.00274084  0.000291109     -47.4172 
         250     0.853332  -0.00241243  0.000380299     -47.4172 
         250         1.08  -0.00182419   0.00048843     -47.4172 
         250      1.33333  -0.00125214  0.000599312     -47.4172 
         250      1.61333 -0.000838506  0.000692981     -47.4172 
         250         1.92 -0.000439244  0.000761585     -47.4172 
         250      2.25333 -8.75554e-05  0.000801352     -47.4171 
         250      2.61333  0.000199845  0.000809693     -47.4171 
         250            3  0.000418517  0.000788302      -47.417 
         300            0 -2.46853e-19 -6.28688e-27      -44.433 
         300     0.013333 -0.000399954 -6.76528e-07      -44.433 
         300     0.053333 -0.000880831  -1.0635e-05      -44.433 
         300         0.12 -0.000934175 -5.06996e-05      -44.433 
         300     0.213332 -0.000273528 -0.000141843      -44.433 
         300     0.333332  0.000717571 -0.000288091      -44.433 
         300         0.48   0.00144749 -0.000475407      -44.433 
         300     0.653331   0.00164146 -0.000687195      -44.433 
         300     0.853332    0.0013868  -0.00091123      -44.433 
         300         1.08   0.00101201  -0.00113039      -44.433 
         300      1.33333  0.000805244  -0.00132401      -44.433 
         300      1.61333  0.000680265  -0.00148238      -44.433 
         300         1.92  0.000481008  -0.00159807     -44.4331 
         300      2.25333  0.000263957  -0.00166069     -44.4331 
         300      2.61333  5.69518e-05  -0.00166533     -44.4331 
         300            3 -0.000131916  -0.00161305     -44.4331 
         350            0            0            0     -41.4532 
         350     0.013333 -0.000626287   2.5851e-07     -41.4532 
         350     0.053333  -0.00195959  3.10272e-06     -41.4532 
         350         0.12  -0.00365855  8.90373e-06     -41.4532 
         350     0.213332  -0.00504943  7.88795e-06     -41.4532 
         350     0.333332  -0.00571538 -1.66789e-05     -41.4532 
         350         0.48  -0.00575717 -7.58062e-05     -41.4532 
         350     0.653331  -0.00553716 -0.000167773     -41.4532 
         350     0.853332  -0.00526962 -0.000281264     -41.4532 
         350         1.08  -0.00489018 -0.000400809     -41.4532 
         350      1.33333  -0.00424808 -0.000511202     -41.4532 
         350      1.61333  -0.00337726 -0.000605082     -41.4532 
         350         1.92  -0.00241421  -0.00068014     -41.4532 
         350      2.25333  -0.00143752 -0.000731565     -41.4531 
         350      2.61333  -0.00050718 -0.000756567     -41.4531 
         350            3  0.000302497 -0.000753865      -41.453 
         400            0            0            0     -38.4714 
         400     0.013333 -0.000186637  7.04918e-07     -38.4714 
         400     0.053333  -0.00050521  1.02045e-05     -38.4714 
         400         0.12  -0.00127751  4.33716e-05     -38.4714 
         400     0.213332  -0.00229552  0.000106762     -38.4714 
         400     0.333332  -0.00308781  0.000191153     -38.4714 
         400         0.48   -0.0034018  0.000282535     -38.4714 
         400     0.653331  -0.00330362  0.000377448     -38.4714 
         400     0.853332   -0.0028835  0.000483592     -38.4714 
         400         1.08  -0.00221943  0.000604256     -38.4714 
         400      1.33333  -0.00158619  0.000725282     -38.4714 
         400      1.61333  -0.00116442  0.000827814     -38.4714 
         400         1.92 -0.000774531  0.000905641     -38.4713 
         400      2.25333 -0.000384831   0.00095554     -38.4713 
         400      2.61333 -2.16926e-05  0.000973641     -38.4713 
         400            3  0.000285564  0.000958358     -38.4712 
         450            0 -1.60416e-19  3.75219e-27     -35.4903 
         450     0.013333 -0.000197932  6.75798e-07     -35.4903 
         450     0.053333 -0.000542103  9.79268e-06     -35.4903 
         450         0.12  -0.00133978  4.16548e-05     -35.4903 
         450     0.213332  -0.00237396  0.000102472     -35.4903 
         450     0.333332  -0.00316637  0.000182856     -35.4903 
         450         0.48  -0.00346231  0.000268511     -35.4903 
         450     0.653331  -0.00334129  0.000355807     -35.4903 
         450     0.853332  -0.00290802  0.000453041     -35.4903 
         450         1.08  -0.00222555  0.000565366     -35.4903 
         450      1.33333  -0.00156245  0.000679768     -35.4903 
         450      1.61333  -0.00114683  0.000776189     -35.4902 
         450         1.92 -0.000791683  0.000848664     -35.4902 
         450      2.25333 -0.000428299  0.000895836     -35.4902 
         450      2.61333 -7.74838e-05   0.00091457     -35.4901 
         450            3  0.000226249  0.000902772     -35.4901 
         500            0            0            0     -32.5082 
         500     0.013333  0.000345363  7.43524e-07     -32.5082 
         500     0.053333   0.00133624  1.18285e-05     -32.5082 
         500         0.12    0.0018862  5.76036e-05     -32.5082 
         500     0.213332   0.00140566   0.00016604     -32.5082 
         500     0.333332  0.000186134  0.000349038     -32.5082 
         500         0.48 -0.000990549  0.000595327     -32.5082 
         500     0.653331  -0.00158469  0.000884505     -32.5082 
         500     0.853332  -0.00152783   0.00120089     -32.5082 
         500         1.08  -0.00109739   0.00152878     -32.5082 
         500      1.33333 -0.000750679   0.00184336     -32.5082 
         500      1.61333 -0.000680062   0.00212183     -32.5082 
         500         1.92 -0.000632966   0.00235374     -32.5082 
         500      2.25333 -0.000544983   0.00252689     -32.5082 
         500      2.61333 -0.000434263   0.00262793     -32.5082 
         500            3 -0.000317955   0.00264739     -32.5082 
         550            0           -0           -0     -29.5253 
         550     0.013333 -0.000243847 -1.07858e-06     -29.5253 
         550     0.053333  -0.00021892  -1.6138e-05     -29.5253 
         550         0.12  0.000570223 -7.24575e-05     -29.5253 
         550     0.213332   0.00221341  -0.00019199     -29.5253 
         550     0.333332    0.0040616 -0.000373933     -29.5253 
         550         0.48   0.00538044 -0.000598911     -29.5253 
         550     0.653331   0.00590868 -0.000849184     -29.5253 
         550     0.853332   0.00573081  -0.00112044     -29.5253 
         550         1.08    0.0050001  -0.00141355     -29.5253 
         550      1.33333   0.00401687  -0.00171684     -29.5253 
         550      1.61333   0.00314581  -0.00200442     -29.5253 
         550         1.92   0.00237248  -0.00225411     -29.5254 
         550      2.25333   0.00158149  -0.00245131     -29.5254 
         550      2.61333  0.000769798  -0.00258244     -29.5254 
         550            3  2.72446e-06  -0.00263671     -29.5255 
         600            0            0            0     -26.5458 
         600     0.013333  1.25037e-05  4.53988e-07     -26.5458 
         600     0.053333  0.000258973  6.78287e-06     -26.5457 
         600         0.12  0.000240536  3.05556e-05     -26.5457 
         600     0.213332 -0.000200116  8.20699e-05     -26.5457 
         600     0.333332 -0.000901258  0.000164124     -26.5457 
         600         0.48  -0.00158392  0.000272661     -26.5458 
         600     0.653331  -0.00206959  0.000402423     -26.5458 
         600     0.853332  -0.00228111   0.00055188     -26.5458 
         600         1.08  -0.00215492  0.000723229     -26.5458 
         600      1.33333  -0.00173961  0.000913728     -26.5458 
         600      1.61333  -0.00129816   0.00110755     -26.5458 
         600         1.92  -0.00098112   0.00128537     -26.5457 
         600      2.25333 -0.000703097   0.00143576     -26.5457 
         600      2.61333 -0.000423127   0.00154948     -26.5457 
         600            3  -0.00016015    0.0016187     -26.5457 
         650            0           -0           -0     -23.5654 
         650     0.013333 -0.000622108  4.84269e-07     -23.5654 
         650     0.053333   -0.0020396  6.67049e-06     -23.5654 
         650         0.12  -0.00408394  2.59799e-05     -23.5654 
         650     0.213332   -0.0060765  5.55288e-05     -23.5654 
         650     0.333332  -0.00732906  7.86845e-05     -23.5654 
         650         0.48  -0.00765564  7.72368e-05     -23.5654 
         650     0.653331    -0.007381  4.57639e-05     -23.5654 
         650     0.853332  -0.00687467  -6.6653e-06     -23.5654 
         650         1.08  -0.00623907 -6.53468e-05     -23.5654 
         650      1.33333  -0.00545645 -0.000121662     -23.5654 
         650      1.61333  -0.00459847 -0.000176363     -23.5654 
         650         1.92  -0.00369946 -0.000231175     -23.5654 
         650      2.25333  -0.00273144 -0.000282558     -23.5653 
         650      2.61333  -0.00171503 -0.000327062     -23.5653 
         650            3 -0.000713463 -0.000362283     -23.5652 
         700            0            0            0     -20.5782 
         700     0.013333   0.00034505 -1.10632e-06     -20.5782 
         700     0.053333   0.00191533 -1.59306e-05     -20.5782 
         700         0.12   0.00459462 -6.73364e-05     -20.5782 
         700     0.213332   0.00772903 -0.000164744     -20.5782 
         700     0.333332    0.0102305 -0.000291157     -20.5782 
         700         0.48    0.0114622 -0.000417392     -20.5782 
         700     0.653331    0.0115911  -0.00052735     -20.5782 
         700     0.853332    0.0110613 -0.000627276     -20.5782 
         700         1.08    0.0100604 -0.000734772     -20.5782 
         700      1.33333   0.00866211 -0.000857882     -20.5782 
         700      1.61333   0.00713688 -0.000984888     -20.5782 
         700         1.92   0.00567085   -0.0010978     -20.5782 
         700      2.25333   0.00415969  -0.00118832     -20.5783 
         700      2.61333   0.00257738  -0.00125164     -20.5784 
         700            3   0.00100485  -0.00128309     -20.5785 
         750            0           -0           -0     -17.6013 
         750     0.013333 -0.000194827  1.21101e-06     -17.6013 
         750     0.053333 -0.000719648  1.78634e-05     -17.6013 
         750         0.12  -0.00223152  7.85461e-05     -17.6013 
         750     0.213332  -0.00458307  0.000202961     -17.6013 
         750     0.333332  -0.00690261    0.0003846     -17.6013 
         750         0.48  -0.00839687  0.000599127     -17.6013 
         750     0.653331   -0.0089156  0.000828637     -17.6013 
         750     0.853332  -0.00866425   0.00107469     -17.6013 
         750         1.08  -0.00775843   0.00134937     -17.6013 
         750      1.33333  -0.00638771   0.00165148     -17.6013 
         750      1.61333  -0.00504245   0.00195487     -17.6013 
         750         1.92  -0.00397517   0.00222956     -17.6013 
         750      2.25333  -0.00295384   0.00246116     -17.6012 
         750      2.61333   -0.0018812   0.00263816     -17.6012 
         750            3 -0.000817996   0.00274887     -17.6011 
         800            0 -1.69875e-19  6.63707e-27     -14.6156 
         800     0.013333 -0.000188091 -6.37468e-07     -14.6156 
         800     0.053333 -0.000148296 -9.44337e-06     -14.6156 
         800         0.12  0.000339139 -4.18139e-05     -14.6156 
         800     0.213332   0.00130998 -0.000109136     -14.6156 
         800     0.333332   0.00238011 -0.000209653     -14.6156 
         800         0.48   0.00314198 -0.000332263     -14.6156 
         800     0.653331     0.003481 -0.000468523     -14.6156 
         800     0.853332   0.00345255  -0.00061983     -14.6156 
         800         1.08   0.00304459 -0.000794055     -14.6156 
         800      1.33333   0.00230636 -0.000991459     -14.6156 
         800      1.61333   0.00158993  -0.00119367     -14.6156 
         800         1.92   0.00115003  -0.00137678     -14.6156 
         800      2.25333  0.000795237  -0.00153146     -14.6156 
         800      2.61333  0.000407162  -0.00165148     -14.6156 
         800            3  2.79431e-05  -0.00173026     -14.6157 
         850            0            0            0     -11.6329 
         850     0.013333 -8.42205e-05 -3.22541e-07     -11.6329 
         850     0.053333  0.000171105 -5.03377e-06     -11.6329 
         850         0.12   0.00083865 -2.39767e-05     -11.6329 
         850     0.213332    0.0019485 -6.75852e-05     -11.6329 
         850     0.333332   0.00317876 -0.000138306     -11.6329 
         850         0.48    0.0040622 -0.000226972     -11.6329 
         850     0.653331   0.00435533  -0.00031932     -11.6329 
         850     0.853332   0.00415772 -0.000404398     -11.6329 
         850         1.08   0.00376684 -0.000475078     -11.6329 
         850      1.33333   0.00346006 -0.000525845     -11.6329 
         850      1.61333   0.00324096 -0.000558315     -11.6329 
         850         1.92   0.00287205  -0.00058196     -11.6329 
         850      2.25333   0.00235934 -0.000598927     -11.6329 
         850      2.61333   0.00177351 -0.000606959      -11.633 
         850            3   0.00115344 -0.000602924      -11.633 
         900            0           -0           -0     -8.64871 
         900     0.013333   0.00108181  2.42304e-07     -8.64871 
         900     0.053333   0.00415642  4.96243e-06     -8.64871 
         900         0.12   0.00759921  3.14926e-05     -8.64871 
         900     0.213332   0.00978176  0.000114055     -8.64871 
         900     0.333332   0.00999589  0.000288625     -8.64871 
         900         0.48   0.00883465  0.000569218     -8.64871 
         900     0.653331   0.00746424  0.000941972      -8.6487 
         900     0.853332   0.00665531   0.00137887      -8.6487 
         900         1.08   0.00639723   0.00184807      -8.6487 
         900      1.33333   0.00611739   0.00231429      -8.6487 
         900      1.61333    0.0053657   0.00274963     -8.64871 
         900         1.92   0.00434663   0.00314697     -8.64873 
         900      2.25333   0.00330116   0.00349993     -8.64876 
         900      2.61333   0.00226208   0.00379203     -8.64882 
         900            3   0.00118927    0.0040028     -8.64889 
         950            0            0            0     -5.67062 
         950     0.013333 -0.000453915  7.22831e-07     -5.67062 
         950     0.053333  -0.00150552  1.02375e-05     -5.67062 
         950         0.12  -0.00328522  4.22889e-05     -5.67062 
         950     0.213332  -0.00534002  0.000100944     -5.67062 
         950     0.333332  -0.00699946  0.000174886     -5.67062 
         950         0.48  -0.00793827  0.000248659     -5.67063 
         950     0.653331   -0.0083274  0.000317004     -5.67063 
         950     0.853332  -0.00843426  0.000388796     -5.67063 
         950         1.08  -0.00821469  0.000482667     -5.67064 
         950      1.33333  -0.00740454  0.000616241     -5.67064 
         950      1.61333  -0.00608783  0.000787399     -5.67063 
         950         1.92  -0.00482527  0.000968416     -5.67061 
         950      2.25333  -0.00372278   0.00113824     -5.67058 
         950      2.61333  -0.00266747   0.00128664     -5.67053 
         950            3  -0.00157757   0.00140854     -5.67045 
        1000            0           -0           -0     -2.68313 
        1000     0.013333  0.000410163 -4.99561e-07     -2.68313 
        1000     0.053333   0.00197442 -6.85238e-06     -2.68313 
        1000         0.12   0.00421734 -2.67476e-05     -2.68313 
        1000     0.213332   0.00640298 -5.71036e-05     -2.68313 
        1000     0.333332   0.00773614 -7.95822e-05     -2.68313 
        1000         0.48   0.00795192 -7.29427e-05     -2.68313 
        1000     0.653331   0.00742198 -2.97169e-05     -2.68313 
        1000     0.853332   0.00665697  3.97147e-05     -2.68313 
        1000         1.08   0.00583684    0.0001157     -2.68312 
        1000      1.33333   0.00488229  0.000183108     -2.68312 
        1000      1.61333   0.00386474  0.000242584     -2.68313 
        1000         1.92   0.00302841  0.000306262     -2.68315 
        1000      2.25333   0.00228133   0.00037649     -2.68318 
        1000      2.61333   0.00151086  0.000447768     -2.68322 
        1000            3   0.00070256   0.00051372     -2.68328 
