Variables = x, y, u, v, p

Zone, I=600, F=POINT
         850            0            0            0 -2.05354e-05 
         850     0.000417  0.000126991  1.11745e-11 -2.05353e-05 
         850     0.001671  0.000508877  1.79347e-10 -2.05352e-05 
         850     0.003762   0.00114566  9.08946e-10 -2.05349e-05 
         850     0.006687   0.00203642  2.87175e-09 -2.05345e-05 
         850      0.01045   0.00318239  7.01307e-09  -2.0534e-05 
         850     0.015048   0.00458264  1.45421e-08 -2.05334e-05 
         850     0.020484   0.00623809  2.69461e-08 -2.05327e-05 
         850     0.026753   0.00814723  4.59629e-08 -2.05319e-05 
         850     0.033862    0.0103122   7.3635e-08  -2.0531e-05 
         850     0.041803    0.0127305   1.1222e-07   -2.053e-05 
         850     0.050579    0.0154031  1.64283e-07 -2.05289e-05 
         850     0.060198    0.0183324  2.32709e-07 -2.05276e-05 
         850     0.070646    0.0215142  3.20494e-07 -2.05263e-05 
         850     0.081937    0.0249527  4.31123e-07 -2.05249e-05 
         850     0.094057    0.0286437  5.68091e-07 -2.05233e-05 
         850     0.107021    0.0325916  7.35476e-07 -2.05216e-05 
         850     0.120813    0.0367917  9.37243e-07 -2.05199e-05 
         850      0.13545     0.041249  1.17808e-06  -2.0518e-05 
         850     0.150914    0.0459582  1.46241e-06  -2.0516e-05 
         850     0.167213    0.0509215  1.79531e-06 -2.05139e-05 
         850     0.184359    0.0561425  2.18232e-06 -2.05117e-05 
         850      0.20233    0.0616146  2.62844e-06 -2.05094e-05 
         850     0.221149    0.0673447  3.14002e-06  -2.0507e-05 
         850     0.240792    0.0733252  3.72246e-06 -2.05045e-05 
         850     0.261284    0.0795639  4.38279e-06 -2.05018e-05 
         850     0.282599    0.0860525  5.12677e-06 -2.04991e-05 
         850     0.304763    0.0927988  5.96211e-06 -2.04962e-05 
         850      0.32775    0.0997947  6.89491e-06 -2.04933e-05 
         850     0.351587     0.107048  7.93363e-06 -2.04902e-05 
         850     0.376246      0.11455  9.08464e-06 -2.04871e-05 
         850      0.40174     0.122305  1.03563e-05 -2.04838e-05 
         850     0.428086     0.130316  1.17576e-05 -2.04804e-05 
         850     0.455252     0.138574  1.32952e-05 -2.04769e-05 
         850     0.483271     0.147089  1.49795e-05 -2.04733e-05 
         850     0.512109     0.155849  1.68173e-05 -2.04696e-05 
         850     0.541801     0.164863  1.88197e-05 -2.04657e-05 
         850     0.572311     0.174121  2.09935e-05 -2.04618e-05 
         850     0.603676     0.183632  2.33508e-05 -2.04577e-05 
         850     0.635857     0.193383  2.58986e-05 -2.04536e-05 
         850     0.668875      0.20338  2.86466e-05 -2.04493e-05 
         850     0.702748     0.213625  3.16077e-05 -2.04449e-05 
         850     0.737438     0.224107  3.47889e-05 -2.04404e-05 
         850     0.772984     0.234833  3.82038e-05 -2.04358e-05 
         850     0.809345     0.245791  4.18581e-05  -2.0431e-05 
         850     0.846564      0.25699  4.57661e-05 -2.04261e-05 
         850     0.884597     0.268414  4.99332e-05 -2.04211e-05 
         850     0.923489     0.280074  5.43748e-05  -2.0416e-05 
         850     0.963194     0.291952  5.90961e-05 -2.04108e-05 
         850      1.00376     0.304059  6.41132e-05 -2.04054e-05 
         850      1.04514     0.316375  6.94304e-05 -2.03999e-05 
         850      1.08735     0.328903  7.50601e-05 -2.03942e-05 
         850      1.13042     0.341646  8.10154e-05 -2.03884e-05 
         850      1.17431     0.354583  8.72977e-05 -2.03825e-05 
         850      1.21905     0.367722  9.39232e-05 -2.03764e-05 
         850      1.26461     0.381042  0.000100892 -2.03701e-05 
         850      1.31103     0.394551  0.000108221 -2.03638e-05 
         850      1.35826     0.408225  0.000115911 -2.03572e-05 
         850      1.40635     0.422071  0.000123976 -2.03505e-05 
         850      1.45525     0.436063   0.00013241 -2.03433e-05 
         850      1.50498     0.450201  0.000141206 -2.03355e-05 
         850      1.55558     0.464481  0.000150415 -2.03242e-05 
         850      1.60699     0.478875  0.000160025 -2.03175e-05 
         850      1.65927     0.493388  0.000170031 -2.03128e-05 
         850      1.71235     0.507989  0.000180413 -2.03082e-05 
         850      1.76629     0.522682   0.00019118 -2.03026e-05 
         850      1.82104     0.537435  0.000202319 -2.02953e-05 
         850      1.87666     0.552249  0.000213841 -2.02861e-05 
         850      1.93309      0.56709  0.000225733 -2.02751e-05 
         850      1.99034     0.581951  0.000237998 -2.02629e-05 
         850      2.04847     0.596821  0.000250639   -2.025e-05 
         850       2.1074     0.611666  0.000263631 -2.02369e-05 
         850      2.16721     0.626482  0.000276978 -2.02243e-05 
         850      2.22781     0.641231  0.000290646 -2.02126e-05 
         850      2.28928     0.655913  0.000304633 -2.02019e-05 
         850      2.35156     0.670486  0.000318898 -2.01924e-05 
         850       2.4147     0.684947  0.000333433 -2.01836e-05 
         850      2.47865     0.699257  0.000348192 -2.01753e-05 
         850      2.54347     0.713411  0.000363164 -2.01668e-05 
         850      2.60909     0.727368  0.000378302 -2.01575e-05 
         850      2.67554     0.741116  0.000393586 -2.01465e-05 
         850      2.74287     0.754639  0.000408995 -2.01332e-05 
         850        2.811       0.7679  0.000424481 -2.01174e-05 
         850         2.88     0.780893  0.000440034 -2.00989e-05 
         850      2.94979     0.793581  0.000455603 -2.00782e-05 
         850      3.02047     0.805959  0.000471172  -2.0056e-05 
         850      3.09194     0.817993  0.000486685 -2.00338e-05 
         850      3.16429     0.829678  0.000502116 -2.00131e-05 
         850      3.23743     0.840984  0.000517397 -1.99959e-05 
         850       3.3114     0.851902  0.000532485 -1.99833e-05 
         850      3.38626     0.862424  0.000547332 -1.99759e-05 
         850      3.46191     0.872525  0.000561867 -1.99719e-05 
         850      3.53844     0.882206  0.000576074 -1.99662e-05 
         850      3.61576     0.891447  0.000589933 -1.99481e-05 
         850      3.69396     0.900252  0.000603522 -1.98994e-05 
         850      3.77295     0.908606  0.000616807 -1.98223e-05 
         850      3.85283     0.916515  0.000629417 -1.97953e-05 
         850      3.93349     0.923973  0.000641602 -1.97699e-05 
         850      4.01504     0.930989  0.000653332 -1.97458e-05 
         850      4.09737     0.937558  0.000664557 -1.97228e-05 
         850      4.18054      0.94369  0.000675255 -1.97005e-05 
         850       4.2646     0.949397  0.000685414 -1.96787e-05 
         850      4.34945     0.954682  0.000695006 -1.96573e-05 
         850      4.43518     0.959562  0.000704036  -1.9636e-05 
         850      4.52169     0.964047   0.00071249 -1.96149e-05 
         850      4.60909     0.968157  0.000720382 -1.95938e-05 
         850      4.69728     0.971902   0.00072771 -1.95726e-05 
         850      4.78636     0.975306  0.000734494 -1.95512e-05 
         850      4.87621     0.978381   0.00074074 -1.95296e-05 
         850      4.96691      0.98115  0.000746469 -1.95077e-05 
         850      5.05849     0.983633  0.000751705 -1.94854e-05 
         850      5.15086     0.985847  0.000756461 -1.94627e-05 
         850      5.24411     0.987813  0.000760768 -1.94394e-05 
         850      5.33815     0.989548  0.000764645 -1.94154e-05 
         850      5.43308     0.991075  0.000768119 -1.93906e-05 
         850      5.52879     0.992409  0.000771215  -1.9365e-05 
         850       5.6254     0.993571   0.00077396 -1.93382e-05 
         850      5.72278     0.994575  0.000776378 -1.93101e-05 
         850      5.82099      0.99544  0.000778497 -1.92807e-05 
         850      5.92011      0.99618  0.000780343 -1.92497e-05 
         850         6.02      0.99681   0.00078194  -1.9217e-05 
         850      6.12078     0.997343  0.000783314 -1.91826e-05 
         850      6.22234     0.997792  0.000784488 -1.91464e-05 
         850       6.3248     0.998167  0.000785487 -1.91085e-05 
         850      6.42803      0.99848   0.00078633 -1.90691e-05 
         850      6.53216     0.998738  0.000787039 -1.90284e-05 
         850      6.63707     0.998951  0.000787633  -1.8987e-05 
         850      6.74287     0.999125  0.000788129 -1.89457e-05 
         850      6.84945     0.999266   0.00078854 -1.89054e-05 
         850      6.95686      0.99938  0.000788879 -1.88675e-05 
         850      7.06517     0.999472  0.000789156 -1.88338e-05 
         850      7.17426     0.999544  0.000789376 -1.88063e-05 
         850      7.28424     0.999601  0.000789541 -1.87879e-05 
         850        7.395     0.999646  0.000789652 -1.87819e-05 
         850      7.50666     0.999681  0.000789768 -1.87241e-05 
         850      7.61908     0.999708  0.000789859 -1.86649e-05 
         850      7.73241     0.999728  0.000789927 -1.86124e-05 
         850      7.84651     0.999744  0.000789983  -1.8566e-05 
         850      7.96145     0.999755  0.000790039 -1.85252e-05 
         850      8.07729     0.999765  0.000790105 -1.84897e-05 
         850      8.19389     0.999772  0.000790185  -1.8459e-05 
         850      8.31141     0.999778  0.000790273  -1.8432e-05 
         850      8.42969     0.999782  0.000790345  -1.8407e-05 
         850      8.54887     0.999786  0.000790347  -1.8381e-05 
         850      8.66882     0.999787  0.000790182 -1.83496e-05 
         850      8.78968     0.999788  0.000790075 -1.83059e-05 
         850      8.91131      0.99979  0.000790317 -1.82571e-05 
         850      9.03384     0.999791  0.000790362 -1.82092e-05 
         850      9.15713     0.999792  0.000790308 -1.81623e-05 
         850      9.28126     0.999793  0.000790223 -1.81165e-05 
         850       9.4063     0.999793  0.000790149 -1.80718e-05 
         850       9.5321     0.999794  0.000790107 -1.80282e-05 
         850      9.65882     0.999794  0.000790105 -1.79859e-05 
         850      9.78629     0.999795  0.000790138 -1.79448e-05 
         850      9.91468     0.999795  0.000790196 -1.79049e-05 
         850      10.0438     0.999796  0.000790266  -1.7866e-05 
         850      10.1739     0.999796  0.000790333  -1.7828e-05 
         850      10.3047     0.999797  0.000790385 -1.77905e-05 
         850      10.4363     0.999797  0.000790413  -1.7753e-05 
         850      10.5689     0.999798  0.000790375 -1.76977e-05 
         850      10.7022     0.999798   0.00079033  -1.7647e-05 
         850      10.8365     0.999799  0.000790285 -1.76002e-05 
         850      10.9715     0.999799  0.000790247  -1.7556e-05 
         850      11.1074     0.999799  0.000790218 -1.75131e-05 
         850      11.2441       0.9998  0.000790201 -1.74707e-05 
         850      11.3816       0.9998  0.000790197  -1.7428e-05 
         850        11.52       0.9998  0.000790205 -1.73848e-05 
         850      11.6592     0.999801  0.000790223 -1.73406e-05 
         850      11.7993     0.999801  0.000790246 -1.72954e-05 
         850      11.9401     0.999802  0.000790273 -1.72493e-05 
         850      12.0819     0.999802  0.000790298 -1.72023e-05 
         850      12.2244     0.999803  0.000790318 -1.71548e-05 
         850      12.3678     0.999804  0.000790331 -1.71068e-05 
         850       12.512     0.999804  0.000790336 -1.70587e-05 
         850      12.6571     0.999805  0.000790333 -1.70108e-05 
         850       12.803     0.999805  0.000790326 -1.69632e-05 
         850      12.9498     0.999805  0.000790317  -1.6916e-05 
         850      13.0973     0.999806   0.00079031 -1.68694e-05 
         850      13.2457     0.999806  0.000790312 -1.68232e-05 
         850       13.395     0.999807  0.000790324 -1.67772e-05 
         850       13.545     0.999807  0.000790347 -1.67314e-05 
         850       13.696     0.999808  0.000790377 -1.66854e-05 
         850      13.8477     0.999808  0.000790403 -1.66389e-05 
         850      14.0004     0.999809  0.000790404 -1.65917e-05 
         850      14.1537     0.999809  0.000790351 -1.65451e-05 
         850      14.3081      0.99981  0.000790339 -1.65127e-05 
         850      14.4631      0.99981   0.00079031 -1.64752e-05 
         850       14.619     0.999811  0.000790274  -1.6434e-05 
         850      14.7758     0.999811   0.00079024 -1.63901e-05 
         850      14.9334     0.999812  0.000790215 -1.63439e-05 
         850      15.0919     0.999812  0.000790203 -1.62955e-05 
         850      15.2511     0.999813  0.000790207 -1.62449e-05 
         850      15.4113     0.999813  0.000790227 -1.61919e-05 
         850      15.5722     0.999814  0.000790261 -1.61363e-05 
         850      15.7341     0.999815  0.000790305 -1.60779e-05 
         850      15.8966     0.999815  0.000790355 -1.60167e-05 
         850      16.0602     0.999816  0.000790405 -1.59529e-05 
         850      16.2244     0.999816   0.00079045  -1.5887e-05 
         850      16.3895     0.999817  0.000790484 -1.58196e-05 
         850      16.5555     0.999817  0.000790504 -1.57518e-05 
         850      16.7223     0.999818  0.000790507 -1.56851e-05 
         850        16.89     0.999818  0.000790494 -1.56212e-05 
         850      17.0584     0.999819  0.000790469 -1.55625e-05 
         850      17.2278     0.999819   0.00079044 -1.55113e-05 
         850      17.3979      0.99982  0.000790418 -1.54706e-05 
         850      17.5689     0.999821  0.000790422 -1.54438e-05 
         850      17.7407     0.999821  0.000790473 -1.54343e-05 
         850      17.9133     0.999822  0.000790502 -1.53756e-05 
         850      18.0869     0.999822  0.000790481 -1.52779e-05 
         850      18.2611     0.999823  0.000790471 -1.51976e-05 
         850      18.4364     0.999823  0.000790465 -1.51299e-05 
         850      18.6123     0.999824  0.000790465  -1.5071e-05 
         850      18.7892     0.999824  0.000790472 -1.50173e-05 
         850      18.9669     0.999825   0.00079049 -1.49661e-05 
         850      19.1454     0.999826  0.000790523 -1.49149e-05 
         850      19.3247     0.999826  0.000790568  -1.4862e-05 
         850       19.505     0.999827  0.000790618 -1.48059e-05 
         850      19.6859     0.999828  0.000790658 -1.47458e-05 
         850      19.8677     0.999828  0.000790673 -1.46814e-05 
         850      20.0505     0.999829  0.000790649 -1.46134e-05 
         850       20.234     0.999829  0.000790592 -1.45433e-05 
         850      20.4184      0.99983  0.000790546 -1.44736e-05 
         850      20.6035      0.99983  0.000790631 -1.44083e-05 
         850      20.7896     0.999831  0.000791086 -1.43526e-05 
         850      20.9765     0.999832  0.000790736 -1.42706e-05 
         850      21.1642     0.999833  0.000790634 -1.42036e-05 
         850      21.3527     0.999833  0.000790712 -1.41492e-05 
         850      21.5421     0.999833  0.000790834 -1.41026e-05 
         850      21.7323     0.999834  0.000790922 -1.40604e-05 
         850      21.9233     0.999834   0.00079094   -1.402e-05 
         850      22.1153     0.999835  0.000790887 -1.39797e-05 
         850       22.308     0.999836  0.000790779 -1.39373e-05 
         850      22.5016     0.999837  0.000790642 -1.38902e-05 
         850      22.6959     0.999837   0.00079051 -1.38347e-05 
         850      22.8912     0.999838  0.000790413 -1.37656e-05 
         850      23.0872     0.999839  0.000790377 -1.36755e-05 
         850      23.2841      0.99984  0.000790423 -1.35545e-05 
         850      23.4819      0.99984  0.000790541 -1.34091e-05 
         850      23.6804     0.999841  0.000790529  -1.3418e-05 
         850      23.8799     0.999841  0.000790596 -1.33966e-05 
         850      24.0801     0.999842  0.000790697 -1.33526e-05 
         850      24.2813     0.999842  0.000790802 -1.32924e-05 
         850      24.4831     0.999843  0.000790888 -1.32213e-05 
         850       24.686     0.999844  0.000790942 -1.31436e-05 
         850      24.8895     0.999844  0.000790959 -1.30627e-05 
         850       25.094     0.999845   0.00079094 -1.29812e-05 
         850      25.2992     0.999846  0.000790892 -1.29011e-05 
         850      25.5052     0.999847  0.000790825 -1.28237e-05 
         850      25.7123     0.999847  0.000790752 -1.27498e-05 
         850        25.92     0.999848  0.000790687   -1.268e-05 
         850      26.1287     0.999849  0.000790642 -1.26142e-05 
         850       26.338     0.999849  0.000790626 -1.25521e-05 
         850      26.5484      0.99985  0.000790644 -1.24932e-05 
         850      26.7595     0.999851  0.000790693 -1.24369e-05 
         850      26.9715     0.999851  0.000790766 -1.23819e-05 
         850      27.1842     0.999852  0.000790847 -1.23275e-05 
         850      27.3978     0.999853  0.000790916 -1.22724e-05 
         850      27.6123     0.999853   0.00079095 -1.22153e-05 
         850      27.8276     0.999854  0.000790931 -1.21552e-05 
         850      28.0438     0.999855  0.000790853 -1.20907e-05 
         850      28.2607     0.999856  0.000790735  -1.2021e-05 
         850      28.4786     0.999856  0.000790641 -1.19451e-05 
         850      28.6972     0.999857  0.000790699 -1.18625e-05 
         850      28.9167     0.999858  0.000791136  -1.1773e-05 
         850       29.137     0.999858  0.000790998 -1.16857e-05 
         850      29.3582     0.999858  0.000790776 -1.16029e-05 
         850      29.5801     0.999859  0.000790787 -1.15225e-05 
         850      29.8029      0.99986  0.000790894 -1.14444e-05 
         850      30.0266     0.999861  0.000791012 -1.13688e-05 
         850      30.2511     0.999862  0.000791097  -1.1296e-05 
         850      30.4765     0.999863   0.00079113 -1.12258e-05 
         850      30.7026     0.999864  0.000791114 -1.11584e-05 
         850      30.9297     0.999865  0.000791061 -1.10934e-05 
         850      31.1574     0.999865  0.000790989 -1.10307e-05 
         850      31.3862     0.999866  0.000790915 -1.09696e-05 
         850      31.6156     0.999867  0.000790857 -1.09098e-05 
         850      31.8459     0.999867  0.000790825 -1.08504e-05 
         850      32.0772     0.999868  0.000790826 -1.07907e-05 
         850      32.3092     0.999869  0.000790859 -1.07299e-05 
         850      32.5421     0.999869  0.000790921 -1.06671e-05 
         850      32.7757      0.99987  0.000791002 -1.06015e-05 
         850      33.0103     0.999871  0.000791091 -1.05322e-05 
         850      33.2456     0.999872  0.000791175 -1.04586e-05 
         850      33.4819     0.999873  0.000791241 -1.03802e-05 
         850      33.7189     0.999873  0.000791279 -1.02966e-05 
         850      33.9567     0.999874  0.000791281 -1.02079e-05 
         850      34.1955     0.999875  0.000791244 -1.01141e-05 
         850       34.435     0.999876   0.00079117 -1.00159e-05 
         850      34.6754     0.999877  0.000791065 -9.91403e-06 
         850      34.9166     0.999877  0.000790941 -9.80991e-06 
         850      35.1587     0.999878  0.000790814 -9.70499e-06 
         850      35.4016     0.999879  0.000790701 -9.60135e-06 
         850      35.6454      0.99988  0.000790622 -9.50112e-06 
         850      35.8899      0.99988  0.000790597 -9.40691e-06 
         850      36.1353     0.999881   0.00079064 -9.32128e-06 
         850      36.3815     0.999882  0.000790766 -9.24704e-06 
         850      36.6285     0.999883  0.000790979 -9.18673e-06 
         850      36.8765     0.999884  0.000791278 -9.14263e-06 
         850      37.1252     0.999885  0.000791657 -9.11657e-06 
         850      37.3749     0.999886  0.000792103 -9.10949e-06 
         850      37.6252     0.999887  0.000792011 -8.97564e-06 
         850      37.8765     0.999888  0.000791703 -8.84567e-06 
         850      38.1286     0.999889  0.000791246 -8.73645e-06 
         850      38.3816     0.999889  0.000790707 -8.64041e-06 
         850      38.6353      0.99989  0.000790282 -8.54865e-06 
         850      38.8898      0.99989  0.000790348 -8.44982e-06 
         850      39.1453      0.99989  0.000791546 -8.32961e-06 
         850      39.4015     0.999891  0.000791243 -8.34774e-06 
         850      39.6587     0.999892  0.000790399 -8.37172e-06 
         850      39.9166     0.999893  0.000790407 -8.30363e-06 
         850      40.1754     0.999894  0.000790847 -8.15772e-06 
         850       40.435     0.999895  0.000791434 -7.94168e-06 
         850      40.6955     0.999896   0.00079199 -7.65622e-06 
         850      40.9567     0.999897  0.000791736 -7.59532e-06 
         850      41.2189     0.999898   0.00079149 -7.62066e-06 
         850      41.4818     0.999899  0.000791467 -7.61672e-06 
         850      41.7456     0.999901  0.000791546 -7.58594e-06 
         850      42.0103     0.999901  0.000791643 -7.53164e-06 
         850      42.2757     0.999902  0.000791703 -7.45784e-06 
         850      42.5421     0.999903  0.000791699 -7.36872e-06 
         850      42.8091     0.999903  0.000791624 -7.26869e-06 
         850      43.0772     0.999904  0.000791487 -7.16178e-06 
         850      43.3459     0.999905  0.000791307 -7.05191e-06 
         850      43.6157     0.999905  0.000791108 -6.94226e-06 
         850      43.8861     0.999906  0.000790918 -6.83569e-06 
         850      44.1573     0.999907   0.00079076 -6.73421e-06 
         850      44.4296     0.999908  0.000790655 -6.63919e-06 
         850      44.7025     0.999909  0.000790615 -6.55149e-06 
         850      44.9764      0.99991  0.000790644 -6.47112e-06 
         850       45.251     0.999911  0.000790738 -6.39772e-06 
         850      45.5266     0.999912  0.000790885 -6.33023e-06 
         850      45.8029     0.999913  0.000791065 -6.26739e-06 
         850      46.0801     0.999914  0.000791258 -6.20749e-06 
         850      46.3581     0.999915  0.000791437 -6.14882e-06 
         850      46.6368     0.999916  0.000791581 -6.08953e-06 
         850      46.9166     0.999917  0.000791671 -6.02789e-06 
         850       47.197     0.999918  0.000791697 -5.96249e-06 
         850      47.4785     0.999918  0.000791661 -5.89211e-06 
         850      47.7606     0.999919  0.000791573 -5.81612e-06 
         850      48.0437      0.99992  0.000791458 -5.73421e-06 
         850      48.3275     0.999921  0.000791347 -5.64677e-06 
         850      48.6123     0.999922  0.000791275 -5.55451e-06 
         850      48.8978     0.999922  0.000791272 -5.45875e-06 
         850      49.1842     0.999923  0.000791344 -5.36092e-06 
         850      49.4714     0.999923  0.000791458 -5.26276e-06 
         850      49.7593     0.999924  0.000791512 -5.16564e-06 
         850      50.0483     0.999926  0.000791297 -5.07034e-06 
         850      50.3379     0.999929  0.000790676 -4.98133e-06 
         850      50.6286     0.999928  0.000791397 -4.93271e-06 
         850      50.9199     0.999928  0.000791438 -4.86921e-06 
         850      51.2122     0.999929  0.000791216 -4.79257e-06 
         850      51.5052      0.99993  0.000790968 -4.70349e-06 
         850      51.7992     0.999931  0.000790805 -4.60184e-06 
         850      52.0938     0.999932  0.000790761 -4.48765e-06 
         850      52.3893     0.999934  0.000790822 -4.36116e-06 
         850      52.6858     0.999935  0.000790954 -4.22332e-06 
         850       52.983     0.999936  0.000791117 -4.07631e-06 
         850      53.2811     0.999936  0.000791276 -3.92306e-06 
         850        53.58     0.999937  0.000791407   -3.768e-06 
         850      53.8798     0.999938  0.000791497 -3.61616e-06 
         850      54.1803     0.999939  0.000791541  -3.4736e-06 
         850      54.4819      0.99994  0.000791546 -3.34629e-06 
         850       54.784     0.999941  0.000791521 -3.24007e-06 
         850      55.0872     0.999942  0.000791474 -3.15933e-06 
         850      55.3911     0.999943  0.000791417 -3.10638e-06 
         850      55.6957     0.999945  0.000791355  -3.0799e-06 
         850      56.0014     0.999946  0.000791296 -3.07367e-06 
         850      56.3078     0.999947  0.000791247 -3.07474e-06 
         850      56.6152     0.999948  0.000791221 -3.06146e-06 
         850      56.9232     0.999949  0.000791239  -3.0012e-06 
         850      57.2323      0.99995  0.000791337 -2.84769e-06 
         850      57.5419      0.99995   0.00079157 -2.53847e-06 
         850      57.8527      0.99995  0.000791945 -2.05753e-06 
         850       58.164     0.999952  0.000791607 -2.36132e-06 
         850      58.4762     0.999953  0.000791454 -2.48347e-06 
         850      58.7895     0.999954  0.000791391 -2.47529e-06 
         850      59.1034     0.999955  0.000791357  -2.3781e-06 
         850      59.4183     0.999956  0.000791321 -2.22429e-06 
         850      59.7338     0.999957  0.000791272 -2.03895e-06 
         850      60.0504     0.999958  0.000791216 -1.84044e-06 
         850      60.3676      0.99996  0.000791167 -1.64222e-06 
         850      60.6858     0.999961  0.000791139 -1.45301e-06 
         850      61.0047     0.999962  0.000791146 -1.27852e-06 
         850      61.3245     0.999963   0.00079119 -1.12137e-06 
         850      61.6452     0.999964  0.000791263 -9.82055e-07 
         850      61.9666     0.999966  0.000791341 -8.59506e-07 
         850      62.2891     0.999967  0.000791379 -7.50667e-07 
         850      62.6121     0.999968  0.000791308 -6.51033e-07 
         850      62.9362     0.999968  0.000791312 -6.04549e-07 
         850       63.261     0.999966  0.000791619 -6.28102e-07 
         850      63.5868     0.999966  0.000791704 -5.98542e-07 
         850      63.9132     0.999967  0.000791698 -5.33537e-07 
         850      64.2406     0.999969  0.000791678 -4.46619e-07 
         850      64.5687     0.999971  0.000791681 -3.48028e-07 
         850      64.8976     0.999973  0.000791717 -2.44925e-07 
         850      65.2276     0.999974  0.000791779 -1.42017e-07 
         850      65.5582     0.999976  0.000791851 -4.22129e-08 
         850      65.8898     0.999977  0.000791914  5.33931e-08 
         850      66.2221     0.999978   0.00079195  1.44677e-07 
         850      66.5554     0.999979  0.000791948  2.32609e-07 
         850      66.8893      0.99998  0.000791901  3.18521e-07 
         850      67.2243      0.99998  0.000791808  4.04274e-07 
         850      67.5599     0.999981  0.000791675  4.91629e-07 
         850      67.8964     0.999982  0.000791516   5.8242e-07 
         850      68.2338     0.999983  0.000791344  6.78271e-07 
         850       68.572     0.999984  0.000791177  7.80298e-07 
         850      68.9111     0.999985  0.000791034  8.89446e-07 
         850      69.2509     0.999986   0.00079093  1.00595e-06 
         850      69.5917     0.999988  0.000790879  1.12984e-06 
         850      69.9332     0.999989  0.000790888  1.26039e-06 
         850      70.2757      0.99999  0.000790961  1.39676e-06 
         850      70.6188     0.999992  0.000791092  1.53741e-06 
         850       70.963     0.999993  0.000791272  1.68085e-06 
         850      71.3078     0.999994  0.000791484  1.82502e-06 
         850      71.6535     0.999995   0.00079171  1.96807e-06 
         850      72.0001     0.999996  0.000791924  2.10814e-06 
         850      72.3475     0.999997  0.000792102   2.2433e-06 
         850      72.6958     0.999998  0.000792222  2.37221e-06 
         850      73.0448     0.999999  0.000792264  2.49362e-06 
         850      73.3948     0.999999  0.000792218  2.60714e-06 
         850      73.7455            1  0.000792079  2.71269e-06 
         850      74.0972            1  0.000791858  2.81122e-06 
         850      74.4495            1  0.000791577  2.90422e-06 
         850      74.8027            1  0.000791269  2.99421e-06 
         850      75.1569            1   0.00079098  3.08458e-06 
         850      75.5117            1  0.000790764  3.17936e-06 
         850      75.8676      1.00001  0.000790673  3.28359e-06 
         850      76.2241      1.00001  0.000790753  3.40267e-06 
         850      76.5817      1.00001  0.000791025  3.54274e-06 
         850      76.9399      1.00001  0.000791468  3.70979e-06 
         850      77.2991      1.00001  0.000791993  3.91002e-06 
         850      77.6589      1.00001  0.000792414  4.14862e-06 
         850      78.0198      1.00001  0.000792406  4.43021e-06 
         850      78.3814      1.00001  0.000791591  4.48376e-06 
         850      78.7437      1.00001  0.000787941  4.55032e-06 
         850      79.1071      1.00001  0.000789952  4.88885e-06 
         850      79.4712      1.00002  0.000792375  4.69013e-06 
         850      79.8363      1.00002   0.00079315  4.59497e-06 
         850       80.202      1.00002  0.000792994  4.58239e-06 
         850      80.5687      1.00002  0.000792406  4.63391e-06 
         850      80.9361      1.00002  0.000791714  4.73359e-06 
         850      81.3045      1.00002  0.000791116  4.86794e-06 
         850      81.6736      1.00002  0.000790711  5.02537e-06 
         850      82.0435      1.00002  0.000790527  5.19651e-06 
         850      82.4144      1.00002  0.000790545   5.3738e-06 
         850       82.786      1.00003  0.000790721  5.55098e-06 
         850      83.1586      1.00003  0.000790994  5.72366e-06 
         850      83.5318      1.00003  0.000791305  5.88835e-06 
         850      83.9061      1.00003  0.000791599  6.04306e-06 
         850       84.281      1.00003  0.000791831  6.18642e-06 
         850      84.6569      1.00003  0.000791974  6.31822e-06 
         850      85.0335      1.00003  0.000792014  6.43865e-06 
         850      85.4109      1.00004  0.000791952  6.54863e-06 