Variables = x, y, u, v, p

Zone, I=400, F=POINT
         900            0            0            0 -1.79773e-05 
         900     0.000942     0.000281  5.38381e-11 -1.79772e-05 
         900     0.003768     0.001124  8.59799e-10 -1.79768e-05 
         900     0.008478   0.00252901  4.35126e-09 -1.79763e-05 
         900     0.015075   0.00449691  1.37559e-08 -1.79755e-05 
         900     0.023553   0.00702592  3.35768e-08 -1.79745e-05 
         900     0.033916    0.0101172  6.96204e-08 -1.79732e-05 
         900     0.046163    0.0137706  1.28973e-07 -1.79717e-05 
         900       0.0603    0.0179877  2.20055e-07   -1.797e-05 
         900     0.076315     0.022765  3.52453e-07 -1.79681e-05 
         900     0.094215    0.0281047  5.37162e-07 -1.79659e-05 
         900     0.113999    0.0340063   7.8641e-07 -1.79635e-05 
         900     0.135675    0.0404722  1.11385e-06 -1.79609e-05 
         900     0.159228    0.0474979  1.53406e-06  -1.7958e-05 
         900     0.184664     0.055085   2.0632e-06  -1.7955e-05 
         900     0.211985    0.0632339  2.71867e-06 -1.79517e-05 
         900     0.241201    0.0719475  3.51939e-06 -1.79481e-05 
         900      0.27229    0.0812187  4.48465e-06 -1.79444e-05 
         900     0.305263    0.0910504  5.63586e-06 -1.79404e-05 
         900     0.340135     0.101446  6.99607e-06 -1.79361e-05 
         900     0.376877     0.112397  8.58766e-06 -1.79317e-05 
         900     0.415503     0.123906   1.0436e-05  -1.7927e-05 
         900     0.456013     0.135971   1.2567e-05 -1.79221e-05 
         900     0.498424     0.148596  1.50089e-05  -1.7917e-05 
         900     0.542703     0.161768  1.77877e-05 -1.79116e-05 
         900     0.588866      0.17549  2.09337e-05  -1.7906e-05 
         900     0.636912     0.189758  2.44765e-05 -1.79001e-05 
         900     0.686864     0.204574    2.845e-05  -1.7894e-05 
         900     0.738679      0.21992   3.2881e-05 -1.78877e-05 
         900     0.792379     0.235797  3.78039e-05 -1.78811e-05 
         900     0.847962     0.252197  4.32515e-05 -1.78743e-05 
         900     0.905453     0.269119  4.92598e-05 -1.78672e-05 
         900     0.964806     0.286538  5.58565e-05 -1.78598e-05 
         900      1.02604      0.30445  6.30759e-05 -1.78522e-05 
         900      1.08919     0.322848  7.09534e-05 -1.78443e-05 
         900      1.15419       0.3417  7.95142e-05 -1.78361e-05 
         900      1.22108     0.360997  8.87916e-05 -1.78275e-05 
         900      1.28985     0.380718  9.88134e-05 -1.78188e-05 
         900      1.36054     0.400846  0.000109609 -1.78098e-05 
         900      1.43308     0.421339  0.000121192 -1.78006e-05 
         900      1.50751     0.442176  0.000133601  -1.7791e-05 
         900      1.58382     0.463321  0.000146805   -1.778e-05 
         900      1.66204     0.484747  0.000160891 -1.77681e-05 
         900      1.74212     0.506397  0.000175815 -1.77563e-05 
         900      1.82409     0.528233  0.000191569 -1.77449e-05 
         900      1.90793     0.550207  0.000208145 -1.77337e-05 
         900       1.9937     0.572274  0.000225545 -1.77223e-05 
         900      2.08131     0.594361  0.000243739 -1.77102e-05 
         900      2.17081     0.616417  0.000262708 -1.76969e-05 
         900      2.26223     0.638385  0.000282416  -1.7682e-05 
         900       2.3555     0.660181  0.000302788 -1.76657e-05 
         900      2.45065     0.681745  0.000323761 -1.76481e-05 
         900      2.54769     0.703005  0.000345254 -1.76297e-05 
         900      2.64665     0.723895  0.000367188 -1.76111e-05 
         900      2.74746     0.744326  0.000389452 -1.75927e-05 
         900      2.85014     0.764233  0.000411962 -1.75748e-05 
         900      2.95472     0.783544  0.000434616 -1.75572e-05 
         900      3.06122     0.802196  0.000457314 -1.75393e-05 
         900      3.16956     0.820111   0.00047991 -1.75198e-05 
         900      3.27979     0.837235  0.000502266 -1.74975e-05 
         900       3.3919     0.853514   0.00052422 -1.74721e-05 
         900      3.50594     0.868905  0.000545631 -1.74457e-05 
         900      3.62181      0.88336  0.000566404 -1.74251e-05 
         900      3.73958     0.896853  0.000586678 -1.74265e-05 
         900      3.85927     0.909371  0.000605871 -1.74197e-05 
         900       3.9808     0.920896  0.000624108  -1.7397e-05 
         900      4.10422     0.931434  0.000641329 -1.73636e-05 
         900      4.22952     0.940994  0.000657437 -1.73218e-05 
         900      4.35675     0.949603  0.000672376 -1.72737e-05 
         900      4.48582     0.957285  0.000686098  -1.7221e-05 
         900      4.61677     0.964085  0.000698595 -1.71656e-05 
         900      4.74961     0.970052  0.000709876 -1.71093e-05 
         900      4.88438     0.975242   0.00071997 -1.70546e-05 
         900      5.02099      0.97971  0.000728907 -1.70045e-05 
         900      5.15948     0.983521  0.000736741  -1.6963e-05 
         900      5.29985     0.986737  0.000743529  -1.6935e-05 
         900      5.44217     0.989425  0.000749338 -1.69265e-05 
         900      5.58631     0.991644  0.000754275 -1.69088e-05 
         900      5.73233     0.993456  0.000758512 -1.68016e-05 
         900      5.88024     0.994919  0.000761991 -1.67295e-05 
         900       6.0301     0.996086  0.000764824 -1.66818e-05 
         900      6.18178     0.997006  0.000767104 -1.66493e-05 
         900      6.33534     0.997722  0.000768919 -1.66242e-05 
         900      6.49085     0.998273  0.000770345 -1.66001e-05 
         900      6.64818     0.998692  0.000771448 -1.65724e-05 
         900      6.80739     0.999005  0.000772288 -1.65378e-05 
         900      6.96849     0.999237  0.000772917  -1.6495e-05 
         900      7.13154     0.999406  0.000773383 -1.64441e-05 
         900      7.29641     0.999526  0.000773729 -1.63869e-05 
         900      7.46316     0.999611   0.00077399 -1.63267e-05 
         900       7.6318      0.99967  0.000774193 -1.62673e-05 
         900      7.80239      0.99971  0.000774348  -1.6213e-05 
         900      7.97479     0.999737  0.000774445 -1.61677e-05 
         900      8.14908     0.999756  0.000774488 -1.61218e-05 
         900      8.32526     0.999769  0.000774533 -1.60712e-05 
         900      8.50338     0.999777  0.000774576 -1.60213e-05 
         900      8.68333     0.999782  0.000774621 -1.59697e-05 
         900      8.86515     0.999785   0.00077466 -1.59142e-05 
         900      9.04894     0.999788  0.000774679 -1.58534e-05 
         900      9.23453     0.999789  0.000774668 -1.57884e-05 
         900      9.42201     0.999791  0.000774638 -1.57237e-05 
         900      9.61137     0.999792  0.000774653 -1.56699e-05 
         900      9.80269     0.999792  0.000774871 -1.56472e-05 
         900      9.99583     0.999793  0.000774717 -1.55751e-05 
         900      10.1908     0.999794   0.00077462 -1.55045e-05 
         900      10.3877     0.999795  0.000774649 -1.54466e-05 
         900      10.5866     0.999795   0.00077473  -1.5394e-05 
         900      10.7873     0.999796  0.000774817 -1.53412e-05 
         900      10.9898     0.999796  0.000774881 -1.52848e-05 
         900      11.1943     0.999797  0.000774913 -1.52236e-05 
         900      11.4007     0.999798  0.000774913 -1.51579e-05 
         900      11.6089     0.999799  0.000774891 -1.50893e-05 
         900       11.819     0.999799   0.00077486 -1.50202e-05 
         900       12.031       0.9998  0.000774832 -1.49532e-05 
         900      12.2449     0.999801  0.000774818 -1.48905e-05 
         900      12.4606     0.999801   0.00077482 -1.48335e-05 
         900      12.6782     0.999802   0.00077484 -1.47828e-05 
         900      12.8978     0.999803  0.000774867 -1.47377e-05 
         900      13.1192     0.999804  0.000774889  -1.4697e-05 
         900      13.3425     0.999805  0.000774886 -1.46596e-05 
         900      13.5677     0.999806  0.000774828 -1.46267e-05 
         900      13.7948     0.999806  0.000774809 -1.45573e-05 
         900      14.0237     0.999807  0.000774869 -1.44626e-05 
         900      14.2546     0.999807  0.000774913 -1.43694e-05 
         900      14.4873     0.999808  0.000774936 -1.42772e-05 
         900      14.7219     0.999809   0.00077495 -1.41881e-05 
         900      14.9584      0.99981  0.000774969  -1.4105e-05 
         900      15.1968      0.99981     0.000775 -1.40306e-05 
         900      15.4371     0.999811  0.000775046 -1.39664e-05 
         900      15.6792     0.999812  0.000775097 -1.39126e-05 
         900      15.9232     0.999813  0.000775144 -1.38673e-05 
         900      16.1691     0.999814  0.000775171 -1.38269e-05 
         900       16.417     0.999815  0.000775171 -1.37861e-05 
         900      16.6666     0.999815   0.00077514  -1.3739e-05 
         900      16.9182     0.999816  0.000775085 -1.36795e-05 
         900      17.1716     0.999817  0.000775023 -1.36025e-05 
         900       17.427     0.999818  0.000774976 -1.35051e-05 
         900      17.6842     0.999819  0.000774968 -1.33878e-05 
         900      17.9433     0.999819  0.000775017 -1.32561e-05 
         900      18.2042      0.99982  0.000775124 -1.31213e-05 
         900      18.4672     0.999821  0.000775266 -1.30016e-05 
         900      18.7319     0.999822  0.000775389  -1.2923e-05 
         900      18.9985     0.999823  0.000775412 -1.29191e-05 
         900       19.267     0.999824  0.000775231 -1.30307e-05 
         900      19.5375     0.999825  0.000774757 -1.33044e-05 
         900      19.8098     0.999826  0.000775193 -1.28933e-05 
         900       20.084     0.999827  0.000775314 -1.25914e-05 
         900      20.3601     0.999828  0.000775312 -1.25509e-05 
         900       20.638     0.999829  0.000775708 -1.26862e-05 
         900      20.9178      0.99983  0.000775878 -1.27224e-05 
         900      21.1995     0.999831  0.000775264 -1.24756e-05 
         900      21.4832     0.999831  0.000775021 -1.22942e-05 
         900      21.7687     0.999832  0.000775068 -1.21687e-05 
         900       22.056     0.999833  0.000775269 -1.20842e-05 
         900      22.3452     0.999834  0.000775494 -1.20238e-05 
         900      22.6365     0.999835   0.00077565 -1.19717e-05 
         900      22.9295     0.999836  0.000775691 -1.19148e-05 
         900      23.2243     0.999837  0.000775624  -1.1844e-05 
         900      23.5211     0.999838  0.000775488 -1.17546e-05 
         900      23.8199     0.999839  0.000775343 -1.16466e-05 
         900      24.1204      0.99984  0.000775246 -1.15243e-05 
         900      24.4228     0.999841  0.000775237 -1.13947e-05 
         900      24.7272     0.999842  0.000775324 -1.12665e-05 
         900      25.0334     0.999843  0.000775484 -1.11487e-05 
         900      25.3415     0.999844  0.000775663 -1.10484e-05 
         900      25.6514     0.999845  0.000775797 -1.09694e-05 
         900      25.9634     0.999846   0.00077583 -1.09115e-05 
         900      26.2771     0.999847  0.000775737 -1.08691e-05 
         900      26.5927     0.999848  0.000775552  -1.0832e-05 
         900      26.9102     0.999849  0.000775366 -1.07867e-05 
         900      27.2297     0.999851   0.00077531 -1.07193e-05 
         900       27.551     0.999852  0.000775491 -1.06212e-05 
         900      27.8741     0.999853  0.000775856  -1.0496e-05 
         900      28.1991     0.999854  0.000775963 -1.03706e-05 
         900      28.5262     0.999855   0.00077477 -1.03019e-05 
         900       28.855     0.999855  0.000775999 -1.01108e-05 
         900      29.1856     0.999856  0.000776049  -1.0001e-05 
         900      29.5183     0.999858  0.000775786 -9.92537e-06 
         900      29.8528     0.999859   0.00077561 -9.85665e-06 
         900      30.1891      0.99986  0.000775626  -9.7816e-06 
         900      30.5273     0.999862  0.000775791 -9.69664e-06 
         900      30.8676     0.999863  0.000776001 -9.60395e-06 
         900      31.2096     0.999864  0.000776158  -9.5084e-06 
         900      31.5534     0.999865  0.000776201 -9.41494e-06 
         900      31.8992     0.999866  0.000776117 -9.32703e-06 
         900      32.2469     0.999867  0.000775936 -9.24556e-06 
         900      32.5965     0.999868  0.000775716 -9.16866e-06 
         900      32.9479     0.999869  0.000775523 -9.09174e-06 
         900      33.3012      0.99987  0.000775411 -9.00857e-06 
         900      33.6565     0.999872  0.000775409 -8.91245e-06 
         900      34.0135     0.999873  0.000775512 -8.79822e-06 
         900      34.3725     0.999874  0.000775684   -8.664e-06 
         900      34.7334     0.999875   0.00077587 -8.51355e-06 
         900      35.0962     0.999877  0.000776017 -8.35864e-06 
         900      35.4608     0.999878  0.000776095 -8.22079e-06 
         900      35.8272     0.999879  0.000776113 -8.13312e-06 
         900      36.1957      0.99988  0.000776132  -8.1415e-06 
         900       36.566     0.999881  0.000776234 -8.30469e-06 
         900      36.9381     0.999883  0.000776345 -8.10482e-06 
         900      37.3121     0.999884  0.000776341 -7.71962e-06 
         900      37.6882     0.999885  0.000776274 -7.40565e-06 
         900       38.066     0.999886  0.000776275 -7.21458e-06 
         900      38.4456     0.999888  0.000776649 -7.28034e-06 
         900      38.8272     0.999889  0.000776766 -7.03532e-06 
         900      39.2108      0.99989  0.000776638 -7.03304e-06 
         900      39.5961     0.999891   0.00077633 -7.13534e-06 
         900      39.9833     0.999893  0.000775836 -7.24762e-06 
         900      40.3724     0.999894  0.000775136 -7.31644e-06 
         900      40.7635     0.999896  0.000775666 -6.96889e-06 
         900      41.1564     0.999897  0.000776054 -6.74911e-06 
         900      41.5511     0.999898  0.000776283 -6.61899e-06 
         900      41.9479       0.9999  0.000776384 -6.52837e-06 
         900      42.3464     0.999901  0.000776388  -6.4418e-06 
         900      42.7468     0.999902  0.000776328 -6.33797e-06 
         900      43.1491     0.999903  0.000776246 -6.20842e-06 
         900      43.5534     0.999904  0.000776182 -6.05525e-06 
         900      43.9595     0.999906  0.000776162  -5.8884e-06 
         900      44.3674     0.999907  0.000776199 -5.72199e-06 
         900      44.7772     0.999908  0.000776279 -5.57092e-06 
         900      45.1891      0.99991   0.00077637 -5.44744e-06 
         900      45.6027     0.999911  0.000776429 -5.35824e-06 
         900      46.0181     0.999913  0.000776416 -5.30196e-06 
         900      46.4355     0.999914  0.000776312 -5.26847e-06 
         900      46.8549     0.999915  0.000776135 -5.23942e-06 
         900       47.276     0.999916   0.00077595 -5.19118e-06 
         900       47.699     0.999918  0.000775857 -5.10041e-06 
         900      48.1241     0.999919  0.000775954 -4.95299e-06 
         900      48.5508     0.999921  0.000776256 -4.75723e-06 
         900      48.9795     0.999922  0.000776545 -4.56135e-06 
         900        49.41     0.999923  0.000776143 -4.47688e-06 
         900      49.8426     0.999924  0.000776716 -4.28187e-06 
         900      50.2769     0.999926  0.000776947  -4.1749e-06 
         900      50.7131     0.999928  0.000776809 -4.15332e-06 
         900      51.1512     0.999929  0.000776639  -4.1515e-06 
         900      51.5914      0.99993  0.000776548 -4.13252e-06 
         900      52.0332     0.999932  0.000776525 -4.07914e-06 
         900      52.4769     0.999933  0.000776517 -3.98655e-06 
         900      52.9225     0.999934  0.000776474 -3.85702e-06 
         900      53.3702     0.999936  0.000776372 -3.69603e-06 
         900      53.8196     0.999938  0.000776222 -3.51032e-06 
         900      54.2709      0.99994  0.000776063 -3.30642e-06 
         900      54.7242     0.999941  0.000775948 -3.09076e-06 
         900      55.1792     0.999943  0.000775929 -2.87057e-06 
         900      55.6362     0.999944  0.000776035 -2.65437e-06 
         900       56.095     0.999945  0.000776265 -2.45321e-06 
         900      56.5558     0.999946  0.000776574 -2.28104e-06 
         900      57.0184     0.999948  0.000776875 -2.15448e-06 
         900      57.4829     0.999949  0.000777041 -2.09049e-06 
         900      57.9492     0.999951  0.000776923 -2.10265e-06 
         900      58.4176     0.999953  0.000776356 -2.19419e-06 
         900      58.8877     0.999955  0.000776716 -1.86085e-06 
         900      59.3597     0.999957  0.000776524 -1.69352e-06 
         900      59.8336     0.999958  0.000776387 -1.57906e-06 
         900      60.3096     0.999959  0.000776701 -1.46447e-06 
         900      60.7872     0.999959  0.000777405 -1.36676e-06 
         900      61.2667     0.999961  0.000777558 -1.38761e-06 
         900      61.7484     0.999967    0.0007753 -1.64654e-06 
         900      62.2317     0.999969  0.000777295  -1.0831e-06 
         900      62.7168     0.999967  0.000777064 -7.58389e-07 
         900      63.2039     0.999966  0.000776184 -5.88214e-07 
         900      63.6931     0.999966  0.000775631 -5.79841e-07 
         900      64.1839     0.999969  0.000776086 -8.37945e-07 
         900      64.6766     0.999973  0.000777282 -1.16235e-06 
         900      65.1712     0.999975  0.000776478 -4.41374e-07 
         900      65.6679     0.999977  0.000776178   5.6127e-08 
         900      66.1663     0.999979  0.000776177  3.58077e-07 
         900      66.6665     0.999979  0.000776335  5.15617e-07 
         900      67.1687      0.99998  0.000776561  5.86661e-07 
         900      67.6729      0.99998  0.000776792  6.24879e-07 
         900      68.1788     0.999981  0.000776989  6.72326e-07 
         900      68.6866     0.999983  0.000777128  7.55736e-07 
         900      69.1963     0.999986  0.000777192  8.85775e-07 
         900      69.7081     0.999988   0.00077717    1.059e-06 
         900      70.2215     0.999991  0.000777063  1.26135e-06 
         900      70.7368     0.999993   0.00077688  1.47363e-06 
         900      71.2543     0.999995  0.000776645  1.67683e-06 
         900      71.7734     0.999995  0.000776397   1.8571e-06 
         900      72.2943     0.999995  0.000776189  2.01006e-06 
         900      72.8172     0.999995  0.000776083  2.14205e-06 
         900      73.3422     0.999996  0.000776129  2.26832e-06 
         900      73.8688     0.999999  0.000776339  2.40622e-06 
         900      74.3973            1  0.000776638  2.56284e-06 
         900      74.9277      1.00001  0.000776794  2.71466e-06 
         900      75.4602            1  0.000776323  2.77839e-06 
         900      75.9944      1.00001  0.000776279  3.00427e-06 
         900      76.5305      1.00001   0.00077663  3.29253e-06 
         900      77.0684      1.00001  0.000776783  3.51748e-06 
         900      77.6084      1.00001  0.000776766  3.68849e-06 
         900      78.1502      1.00001  0.000776651  3.81251e-06 
         900      78.6937      1.00001  0.000776519  3.89595e-06 
         900      79.2394      1.00002  0.000776436  3.94552e-06 
         900      79.7868      1.00002  0.000776443  3.96896e-06 
         900      80.3361      1.00002  0.000776547  3.97544e-06 
         900      80.8872      1.00002   0.00077673  3.97547e-06 
         900      81.4404      1.00003  0.000776947  3.98055e-06 
         900      81.9953      1.00003  0.000777146  4.00265e-06 
         900      82.5521      1.00003   0.00077727  4.05338e-06 
         900      83.1108      1.00003  0.000777274  4.14314e-06 
         900      83.6715      1.00003   0.00077713  4.28014e-06 
         900       84.234      1.00003  0.000776836  4.46927e-06 
         900      84.7983      1.00003  0.000776417   4.7115e-06 
         900      85.3645      1.00003  0.000775924  5.00302e-06 
         900      85.9328      1.00004  0.000775431  5.33495e-06 
         900      86.5028      1.00004  0.000775021  5.69281e-06 
         900      87.0747      1.00004  0.000774778  6.05777e-06 
         900      87.6486      1.00004   0.00077477  6.40731e-06 
         900      88.2243      1.00004  0.000775033  6.71665e-06 
         900      88.8018      1.00005  0.000775556  6.96231e-06 
         900      89.3812      1.00005  0.000776279  7.12532e-06 
         900      89.9627      1.00005  0.000777085  7.19634e-06 
         900      90.5458      1.00005  0.000777814  7.18197e-06 
         900      91.1309      1.00005  0.000778297  7.11283e-06 
         900      91.7178      1.00005  0.000778408  7.05312e-06 
         900      92.3069      1.00005  0.000778152  7.11242e-06 
         900      92.8976      1.00006  0.000776403  7.51091e-06 
         900      93.4901      1.00006  0.000774004  7.70559e-06 
         900      94.0846      1.00006  0.000773559  7.87597e-06 
         900      94.6812      1.00007  0.000780369  8.32006e-06 
         900      95.2794      1.00006  0.000779353   7.4581e-06 
         900      95.8796      1.00006  0.000774045  6.34814e-06 
         900      96.4818      1.00007  0.000773324  5.59111e-06 
         900      97.0857      1.00008  0.000774351   6.9726e-06 
         900      97.6915      1.00008   0.00077542  8.12621e-06 
         900      98.2991      1.00008  0.000776299  9.02339e-06 
         900      98.9089      1.00008  0.000776887  9.66684e-06 
         900      99.5203      1.00008  0.000777166  1.00808e-05 
         900      100.134      1.00008  0.000777176  1.03047e-05 
         900      100.749      1.00008  0.000776984  1.03859e-05 
         900      101.366      1.00008  0.000776668  1.03738e-05 
         900      101.985      1.00008  0.000776303   1.0316e-05 
         900      102.606      1.00008  0.000775951  1.02546e-05 
         900      103.229      1.00009  0.000775656  1.02237e-05 
         900      103.854      1.00009  0.000775443  1.02479e-05 
         900       104.48      1.00009   0.00077532  1.03417e-05 
         900      105.108      1.00009  0.000775279  1.05091e-05 
         900      105.739       1.0001  0.000775301  1.07448e-05 
         900      106.371       1.0001  0.000775362  1.10358e-05 
         900      107.005       1.0001  0.000775435   1.1362e-05 
         900      107.641       1.0001  0.000775498     1.17e-05 
         900      108.279       1.0001  0.000775533  1.20249e-05 
         900      108.919       1.0001  0.000775532  1.23122e-05 
         900       109.56       1.0001  0.000775499  1.25419e-05 
         900      110.204      1.00011  0.000775444  1.26998e-05 
         900      110.849      1.00011  0.000775388  1.27801e-05 
         900      111.497      1.00011  0.000775352  1.27867e-05 
         900      112.146      1.00011  0.000775361  1.27344e-05 
         900      112.797      1.00012   0.00077543  1.26484e-05 
         900       113.45      1.00012  0.000775567  1.25632e-05 
         900      114.105      1.00012  0.000775761    1.252e-05 
         900      114.761      1.00013  0.000775986  1.25623e-05 
         900       115.42      1.00013  0.000776196  1.27296e-05 
         900      116.081      1.00013  0.000776333  1.30488e-05 
         900      116.743      1.00013  0.000776335  1.35231e-05 
         900      117.407      1.00013  0.000776161  1.41183e-05 
         900      118.073      1.00013  0.000775814  1.47455e-05 
         900      118.741      1.00013   0.00077539  1.52395e-05 
         900      119.411      1.00013  0.000775137  1.53357e-05 
         900      120.083      1.00014  0.000775078  1.53018e-05 
         900      120.757      1.00013  0.000774628  1.62033e-05 
         900      121.432      1.00014  0.000774538   1.6702e-05 
         900       122.11      1.00014   0.00077461  1.69167e-05 
         900      122.789      1.00015  0.000774717   1.6942e-05 
         900       123.47      1.00015  0.000774792   1.6853e-05 
         900      124.153      1.00016  0.000774805  1.67086e-05 
         900      124.838      1.00016  0.000774755  1.65548e-05 
         900      125.525      1.00016  0.000774654  1.64276e-05 
         900      126.214      1.00016  0.000774516  1.63554e-05 
         900      126.905      1.00016  0.000774354  1.63606e-05 
         900      127.597      1.00016  0.000774173  1.64616e-05 
         900      128.292      1.00016  0.000773962  1.66733e-05 
         900      128.988      1.00016  0.000773705  1.70077e-05 
         900      129.686      1.00016   0.00077337  1.74743e-05 
         900      130.386      1.00016  0.000772925  1.80793e-05 
         900      131.088      1.00016  0.000773723  1.83299e-05 
         900      131.792      1.00016  0.000774268  1.86928e-05 
         900      132.497      1.00017  0.000774528  1.91422e-05 
         900      133.205      1.00017  0.000774644  1.95976e-05 
         900      133.915      1.00018  0.000774689  2.00145e-05 
         900      134.626      1.00019  0.000774691  2.03733e-05 
         900      135.339      1.00019  0.000774665  2.06724e-05 
         900      136.054       1.0002  0.000774616  2.09205e-05 
         900      136.771       1.0002  0.000774552  2.11313e-05 
         900       137.49       1.0002  0.000774484  2.13195e-05 
         900      138.211       1.0002  0.000774421  2.14977e-05 
         900      138.934       1.0002  0.000774373  2.16748e-05 
         900      139.658       1.0002   0.00077434  2.18545e-05 
         900      140.385      1.00019  0.000774319  2.20358e-05 
         900      141.113      1.00019  0.000774296  2.22134e-05 
         900      141.843      1.00019  0.000774254  2.23786e-05 
         900      142.575      1.00019  0.000774172  2.25211e-05 
         900      143.309      1.00019  0.000774033  2.26307e-05 
         900      144.045       1.0002   0.00077383  2.26986e-05 
         900      144.783      1.00021  0.000773574  2.27193e-05 
         900      145.523      1.00022  0.000773296   2.2691e-05 
         900      146.264      1.00024  0.000773046  2.26165e-05 
         900      147.007      1.00024   0.00077289   2.2502e-05 
         900      147.753      1.00023  0.000772884  2.23551e-05 
         900        148.5      1.00019  0.000773045  2.21822e-05 
         900      149.249      1.00012  0.000773293  2.19819e-05 
         900          150            1  0.000773371  2.17383e-05 
