Variables = x, y, u, v, p

Zone, I=600, F=POINT
         250            0            0            0 -6.79398e-05 
         250     0.000417  0.000180639  3.22471e-11 -6.79397e-05 
         250     0.001671  0.000723857  5.17807e-10 -6.79392e-05 
         250     0.003762   0.00162965  2.62454e-09 -6.79384e-05 
         250     0.006687   0.00289673  8.29239e-09 -6.79373e-05 
         250      0.01045   0.00452682  2.02512e-08 -6.79359e-05 
         250     0.015048   0.00651863  4.19933e-08 -6.79342e-05 
         250     0.020484   0.00887346  7.78135e-08 -6.79322e-05 
         250     0.026753    0.0115891  1.32731e-07 -6.79299e-05 
         250     0.033862    0.0146687  2.12647e-07 -6.79273e-05 
         250     0.041803    0.0181087   3.2408e-07 -6.79243e-05 
         250     0.050579    0.0219104  4.74442e-07 -6.79211e-05 
         250     0.060198    0.0260773  6.72065e-07 -6.79175e-05 
         250     0.070646    0.0306034  9.25608e-07 -6.79136e-05 
         250     0.081937    0.0354945  1.24514e-06 -6.79094e-05 
         250     0.094057    0.0407448  1.64075e-06 -6.79049e-05 
         250     0.107021    0.0463606  2.12424e-06 -6.79001e-05 
         250     0.120813    0.0523349  2.70704e-06  -6.7895e-05 
         250      0.13545     0.058675  3.40272e-06 -6.78896e-05 
         250     0.150914    0.0653731  4.22402e-06 -6.78838e-05 
         250     0.167213    0.0724325  5.18566e-06 -6.78778e-05 
         250     0.184359    0.0798581  6.30356e-06 -6.78714e-05 
         250      0.20233    0.0876402  7.59218e-06 -6.78647e-05 
         250     0.221149    0.0957884  9.06984e-06 -6.78577e-05 
         250     0.240792     0.104292  1.07521e-05 -6.78504e-05 
         250     0.261284     0.113161  1.26591e-05 -6.78428e-05 
         250     0.282599     0.122385  1.48074e-05 -6.78349e-05 
         250     0.304763     0.131972  1.72192e-05 -6.78266e-05 
         250      0.32775     0.141912   1.9912e-05  -6.7818e-05 
         250     0.351587     0.152215  2.29097e-05 -6.78091e-05 
         250     0.376246     0.162867  2.62304e-05 -6.77999e-05 
         250      0.40174     0.173872  2.98979e-05 -6.77904e-05 
         250     0.428086     0.185237  3.39375e-05 -6.77805e-05 
         250     0.455252     0.196945  3.83676e-05 -6.77703e-05 
         250     0.483271     0.209008  4.32173e-05 -6.77597e-05 
         250     0.512109     0.221409  4.85048e-05 -6.77488e-05 
         250     0.541801     0.234158  5.42609e-05 -6.77376e-05 
         250     0.572311     0.247238  6.05036e-05  -6.7726e-05 
         250     0.603676     0.260659   6.7265e-05  -6.7714e-05 
         250     0.635857       0.2744  7.45617e-05 -6.77017e-05 
         250     0.668875     0.288464  8.24229e-05  -6.7689e-05 
         250     0.702748     0.302853  9.08779e-05 -6.76758e-05 
         250     0.737438     0.317542  9.99412e-05 -6.76623e-05 
         250     0.772984     0.332542  0.000109647 -6.76483e-05 
         250     0.809345     0.347824  0.000120006 -6.76339e-05 
         250     0.846564     0.363398  0.000131054 -6.76191e-05 
         250     0.884597     0.379233  0.000142797 -6.76038e-05 
         250     0.923489     0.395337   0.00015527 -6.75879e-05 
         250     0.963194     0.411676  0.000168474 -6.75716e-05 
         250      1.00376     0.428255  0.000182441 -6.75546e-05 
         250      1.04514     0.445037  0.000197168 -6.75371e-05 
         250      1.08735     0.462016  0.000212673  -6.7519e-05 
         250      1.13042     0.479181  0.000228975 -6.75003e-05 
         250      1.17431     0.496491  0.000246058 -6.74808e-05 
         250      1.21905     0.513946  0.000263942 -6.74606e-05 
         250      1.26461     0.531499  0.000282605 -6.74397e-05 
         250      1.31103     0.549145  0.000302059  -6.7418e-05 
         250      1.35826     0.566837  0.000322269 -6.73954e-05 
         250      1.40635     0.584567  0.000343243 -6.73719e-05 
         250      1.45525     0.602282   0.00036493 -6.73474e-05 
         250      1.50498     0.619962  0.000387317 -6.73219e-05 
         250      1.55558     0.637583  0.000410382 -6.72954e-05 
         250      1.60699      0.65509  0.000434055 -6.72678e-05 
         250      1.65927     0.672467  0.000458318  -6.7239e-05 
         250      1.71235     0.689657   0.00048309  -6.7209e-05 
         250      1.76629     0.706644  0.000508341 -6.71777e-05 
         250      1.82104      0.72337  0.000533975 -6.71451e-05 
         250      1.87666     0.739815   0.00055995 -6.71111e-05 
         250      1.93309     0.755924  0.000586158 -6.70756e-05 
         250      1.99034     0.771668  0.000612533 -6.70385e-05 
         250      2.04847      0.78702  0.000639003     -6.7e-05 
         250       2.1074     0.801927  0.000665445 -6.69598e-05 
         250      2.16721     0.816373  0.000691797  -6.6918e-05 
         250      2.22781     0.830309   0.00071793 -6.68747e-05 
         250      2.28928     0.843724  0.000743779 -6.68296e-05 
         250      2.35156     0.856574  0.000769215 -6.67828e-05 
         250       2.4147     0.868852  0.000794174 -6.67344e-05 
         250      2.47865     0.880524  0.000818531 -6.66842e-05 
         250      2.54347     0.891589  0.000842225 -6.66323e-05 
         250      2.60909      0.90202  0.000865142 -6.65786e-05 
         250      2.67554     0.911818  0.000887219 -6.65233e-05 
         250      2.74287     0.920985  0.000908395 -6.64661e-05 
         250        2.811      0.92951  0.000928582 -6.64073e-05 
         250         2.88      0.93741   0.00094775 -6.63468e-05 
         250      2.94979     0.944685  0.000965832 -6.62846e-05 
         250      3.02047     0.951357  0.000982817 -6.62208e-05 
         250      3.09194     0.957437  0.000998662 -6.61554e-05 
         250      3.16429     0.962954   0.00101338 -6.60885e-05 
         250      3.23743     0.967925   0.00102695 -6.60203e-05 
         250       3.3114      0.97238   0.00103939 -6.59507e-05 
         250      3.38626     0.976352   0.00105073 -6.58799e-05 
         250      3.46191     0.979866     0.001061 -6.58079e-05 
         250      3.53844      0.98296   0.00107024 -6.57348e-05 
         250      3.61576     0.985662   0.00107849 -6.56607e-05 
         250      3.69396     0.988009   0.00108581 -6.55855e-05 
         250      3.77295     0.990031   0.00109225 -6.55081e-05 
         250      3.85283     0.991764    0.0010979 -6.54281e-05 
         250      3.93349     0.993235   0.00110279 -6.53479e-05 
         250      4.01504     0.994477   0.00110701 -6.52669e-05 
         250      4.09737     0.995516   0.00111062  -6.5185e-05 
         250      4.18054      0.99638   0.00111369 -6.51021e-05 
         250       4.2646     0.997091   0.00111626 -6.50184e-05 
         250      4.34945     0.997673   0.00111841  -6.4934e-05 
         250      4.43518     0.998145   0.00112019 -6.48486e-05 
         250      4.52169     0.998524   0.00112165 -6.47623e-05 
         250      4.60909     0.998826   0.00112285 -6.46748e-05 
         250      4.69728     0.999065   0.00112381 -6.45862e-05 
         250      4.78636     0.999252   0.00112459 -6.44966e-05 
         250      4.87621     0.999397    0.0011252 -6.44062e-05 
         250      4.96691     0.999508   0.00112568 -6.43154e-05 
         250      5.05849     0.999593   0.00112605 -6.42241e-05 
         250      5.15086     0.999657   0.00112635 -6.41322e-05 
         250      5.24411     0.999705   0.00112659 -6.40381e-05 
         250      5.33815      0.99974   0.00112677 -6.39523e-05 
         250      5.43308     0.999766   0.00112691 -6.38675e-05 
         250      5.52879     0.999784   0.00112703 -6.37684e-05 
         250       5.6254     0.999798   0.00112709 -6.36612e-05 
         250      5.72278     0.999808   0.00112715 -6.35515e-05 
         250      5.82099     0.999815    0.0011272 -6.34602e-05 
         250      5.92011     0.999819   0.00112725 -6.33687e-05 
         250         6.02     0.999822    0.0011273 -6.32673e-05 
         250      6.12078     0.999825   0.00112734 -6.31624e-05 
         250      6.22234     0.999827   0.00112736 -6.30577e-05 
         250       6.3248     0.999828   0.00112738 -6.29543e-05 
         250      6.42803     0.999829    0.0011274 -6.28521e-05 
         250      6.53216     0.999829   0.00112742 -6.27495e-05 
         250      6.63707      0.99983   0.00112745 -6.26451e-05 
         250      6.74287      0.99983   0.00112748 -6.25382e-05 
         250      6.84945     0.999831   0.00112749 -6.24295e-05 
         250      6.95686     0.999831    0.0011275 -6.23205e-05 
         250      7.06517     0.999831   0.00112753 -6.22134e-05 
         250      7.17426     0.999831   0.00112757 -6.21092e-05 
         250      7.28424     0.999832   0.00112758 -6.20032e-05 
         250        7.395     0.999832   0.00112762   -6.189e-05 
         250      7.50666     0.999832   0.00112764 -6.17753e-05 
         250      7.61908     0.999833   0.00112764 -6.16593e-05 
         250      7.73241     0.999833   0.00112766 -6.15422e-05 
         250      7.84651     0.999833   0.00112769 -6.14246e-05 
         250      7.96145     0.999834   0.00112772  -6.1307e-05 
         250      8.07729     0.999834   0.00112775 -6.11899e-05 
         250      8.19389     0.999834   0.00112776 -6.10738e-05 
         250      8.31141     0.999834   0.00112777 -6.09583e-05 
         250      8.42969     0.999835   0.00112778 -6.08431e-05 
         250      8.54887     0.999835   0.00112781 -6.07262e-05 
         250      8.66882     0.999835   0.00112784 -6.06051e-05 
         250      8.78968     0.999836   0.00112787 -6.04757e-05 
         250      8.91131     0.999836   0.00112793 -6.03469e-05 
         250      9.03384     0.999836   0.00112795 -6.02158e-05 
         250      9.15713     0.999837   0.00112795 -6.00834e-05 
         250      9.28126     0.999837   0.00112795  -5.9955e-05 
         250       9.4063     0.999837   0.00112801 -5.98331e-05 
         250       9.5321     0.999838   0.00112807 -5.97113e-05 
         250      9.65882     0.999838   0.00112802 -5.95816e-05 
         250      9.78629     0.999838    0.0011281 -5.94691e-05 
         250      9.91468     0.999839   0.00112812 -5.93454e-05 
         250      10.0438     0.999839   0.00112811 -5.92119e-05 
         250      10.1739     0.999839   0.00112808  -5.9075e-05 
         250      10.3047      0.99984   0.00112813 -5.89498e-05 
         250      10.4363      0.99984   0.00112818 -5.88135e-05 
         250      10.5689      0.99984   0.00112822 -5.86717e-05 
         250      10.7022     0.999841   0.00112826 -5.85288e-05 
         250      10.8365     0.999841   0.00112828  -5.8387e-05 
         250      10.9715     0.999841    0.0011283 -5.82477e-05 
         250      11.1074     0.999842   0.00112832 -5.81109e-05 
         250      11.2441     0.999842   0.00112834 -5.79761e-05 
         250      11.3816     0.999842   0.00112836 -5.78418e-05 
         250        11.52     0.999843   0.00112839 -5.77068e-05 
         250      11.6592     0.999843   0.00112842 -5.75698e-05 
         250      11.7993     0.999843   0.00112846 -5.74295e-05 
         250      11.9401     0.999844   0.00112849 -5.72858e-05 
         250      12.0819     0.999844   0.00112852 -5.71388e-05 
         250      12.2244     0.999845   0.00112855 -5.69896e-05 
         250      12.3678     0.999845   0.00112857 -5.68397e-05 
         250       12.512     0.999845   0.00112858 -5.66916e-05 
         250      12.6571     0.999846    0.0011286  -5.6547e-05 
         250       12.803     0.999846   0.00112863 -5.64076e-05 
         250      12.9498     0.999846   0.00112867 -5.62731e-05 
         250      13.0973     0.999847   0.00112871 -5.61403e-05 
         250      13.2457     0.999847    0.0011287 -5.60013e-05 
         250       13.395     0.999848   0.00112874 -5.58031e-05 
         250       13.545     0.999848    0.0011288 -5.55527e-05 
         250       13.696     0.999848   0.00112881  -5.5518e-05 
         250      13.8477     0.999849   0.00112879 -5.53936e-05 
         250      14.0004     0.999849   0.00112879 -5.52276e-05 
         250      14.1537      0.99985   0.00112884 -5.50498e-05 
         250      14.3081      0.99985   0.00112891 -5.48758e-05 
         250      14.4631      0.99985   0.00112897 -5.47115e-05 
         250       14.619      0.99985   0.00112901 -5.45563e-05 
         250      14.7758     0.999851   0.00112902 -5.44063e-05 
         250      14.9334     0.999851   0.00112902 -5.42569e-05 
         250      15.0919     0.999852   0.00112902  -5.4104e-05 
         250      15.2511     0.999852   0.00112904 -5.39456e-05 
         250      15.4113     0.999853   0.00112908 -5.37818e-05 
         250      15.5722     0.999853   0.00112914 -5.36148e-05 
         250      15.7341     0.999854   0.00112919 -5.34478e-05 
         250      15.8966     0.999854    0.0011292 -5.32833e-05 
         250      16.0602     0.999854   0.00112919 -5.31209e-05 
         250      16.2244     0.999855   0.00112929 -5.29541e-05 
         250      16.3895     0.999856   0.00112922 -5.27699e-05 
         250      16.5555     0.999855   0.00112926 -5.25965e-05 
         250      16.7223     0.999855   0.00112933 -5.24354e-05 
         250        16.89     0.999856    0.0011294  -5.2275e-05 
         250      17.0584     0.999857   0.00112947 -5.21045e-05 
         250      17.2278     0.999858   0.00112951 -5.19206e-05 
         250      17.3979     0.999858   0.00112952 -5.17291e-05 
         250      17.5689     0.999858    0.0011295 -5.15421e-05 
         250      17.7407     0.999858   0.00112948 -5.13731e-05 
         250      17.9133     0.999859   0.00112951 -5.12274e-05 
         250      18.0869     0.999859   0.00112961  -5.1093e-05 
         250      18.2611      0.99986   0.00112967 -5.09293e-05 
         250      18.4364     0.999861   0.00112941 -5.06576e-05 
         250      18.6123     0.999861   0.00112966 -5.05068e-05 
         250      18.7892     0.999862   0.00112973 -5.03329e-05 
         250      18.9669     0.999862   0.00112969 -5.01343e-05 
         250      19.1454     0.999862   0.00112967 -4.99332e-05 
         250      19.3247     0.999862    0.0011297 -4.97413e-05 
         250       19.505     0.999863   0.00112976 -4.95619e-05 
         250      19.6859     0.999864   0.00112981 -4.93925e-05 
         250      19.8677     0.999865   0.00112998 -4.91961e-05 
         250      20.0505     0.999865   0.00112997 -4.90371e-05 
         250       20.234     0.999865   0.00112988 -4.88721e-05 
         250      20.4184     0.999866   0.00112983 -4.86797e-05 
         250      20.6035     0.999866   0.00112989 -4.84683e-05 
         250      20.7896     0.999867   0.00113004 -4.82606e-05 
         250      20.9765     0.999867   0.00113015 -4.80758e-05 
         250      21.1642     0.999868   0.00113014 -4.79125e-05 
         250      21.3527     0.999868   0.00113006  -4.7745e-05 
         250      21.5421     0.999869   0.00113009 -4.75397e-05 
         250      21.7323     0.999869   0.00113032 -4.73048e-05 
         250      21.9233      0.99987   0.00113001 -4.71847e-05 
         250      22.1153      0.99987   0.00113028 -4.69009e-05 
         250       22.308      0.99987   0.00113037 -4.66589e-05 
         250      22.5016     0.999871   0.00113033 -4.64552e-05 
         250      22.6959     0.999871   0.00113026  -4.6271e-05 
         250      22.8912     0.999871   0.00113021  -4.6094e-05 
         250      23.0872     0.999872   0.00113022 -4.59175e-05 
         250      23.2841     0.999873   0.00113029 -4.57372e-05 
         250      23.4819     0.999874   0.00113041 -4.55497e-05 
         250      23.6804     0.999874   0.00113054 -4.53514e-05 
         250      23.8799     0.999875   0.00113063 -4.51361e-05 
         250      24.0801     0.999875   0.00113061 -4.48946e-05 
         250      24.2813     0.999876   0.00113067 -4.47184e-05 
         250      24.4831     0.999876   0.00113066 -4.45321e-05 
         250       24.686     0.999877   0.00113061 -4.43291e-05 
         250      24.8895     0.999877   0.00113058 -4.41159e-05 
         250       25.094     0.999878   0.00113057 -4.38973e-05 
         250      25.2992     0.999878    0.0011306 -4.36773e-05 
         250      25.5052     0.999879   0.00113066 -4.34583e-05 
         250      25.7123     0.999879   0.00113073 -4.32417e-05 
         250        25.92      0.99988   0.00113081 -4.30285e-05 
         250      26.1287      0.99988   0.00113087  -4.2818e-05 
         250       26.338     0.999881   0.00113091 -4.26097e-05 
         250      26.5484     0.999881   0.00113092 -4.24018e-05 
         250      26.7595     0.999882   0.00113091 -4.21926e-05 
         250      26.9715     0.999882   0.00113089 -4.19799e-05 
         250      27.1842     0.999883   0.00113087 -4.17623e-05 
         250      27.3978     0.999884   0.00113088 -4.15385e-05 
         250      27.6123     0.999884   0.00113093 -4.13086e-05 
         250      27.8276     0.999885   0.00113103 -4.10757e-05 
         250      28.0438     0.999885   0.00113114  -4.0845e-05 
         250      28.2607     0.999886    0.0011312 -4.06273e-05 
         250      28.4786     0.999886   0.00113102 -4.04388e-05 
         250      28.6972     0.999887   0.00113117 -4.02024e-05 
         250      28.9167     0.999888   0.00113131  -3.9961e-05 
         250       29.137     0.999888   0.00113131 -3.97351e-05 
         250      29.3582     0.999889   0.00113128 -3.95146e-05 
         250      29.5801     0.999889   0.00113125 -3.92934e-05 
         250      29.8029      0.99989   0.00113125 -3.90677e-05 
         250      30.0266      0.99989   0.00113128  -3.8836e-05 
         250      30.2511     0.999891   0.00113133 -3.85985e-05 
         250      30.4765     0.999891   0.00113139 -3.83561e-05 
         250      30.7026     0.999892   0.00113145 -3.81106e-05 
         250      30.9297     0.999893    0.0011315 -3.78633e-05 
         250      31.1574     0.999893   0.00113153 -3.76161e-05 
         250      31.3862     0.999894   0.00113156 -3.73697e-05 
         250      31.6156     0.999894   0.00113157  -3.7125e-05 
         250      31.8459     0.999895   0.00113157  -3.6882e-05 
         250      32.0772     0.999895   0.00113157 -3.66399e-05 
         250      32.3092     0.999896   0.00113157 -3.63978e-05 
         250      32.5421     0.999896   0.00113158 -3.61539e-05 
         250      32.7757     0.999897   0.00113161 -3.59069e-05 
         250      33.0103     0.999898    0.0011317 -3.56548e-05 
         250      33.2456     0.999899   0.00113182 -3.54057e-05 
         250      33.4819     0.999899   0.00113178 -3.51717e-05 
         250      33.7189     0.999899   0.00113178 -3.49321e-05 
         250      33.9567       0.9999    0.0011318 -3.46888e-05 
         250      34.1955     0.999901   0.00113184 -3.44435e-05 
         250       34.435     0.999902   0.00113187 -3.41984e-05 
         250      34.6754     0.999903   0.00113191 -3.39552e-05 
         250      34.9166     0.999904   0.00113195 -3.37156e-05 
         250      35.1587     0.999904   0.00113198 -3.34797e-05 
         250      35.4016     0.999905   0.00113201 -3.32452e-05 
         250      35.6454     0.999905   0.00113202 -3.30054e-05 
         250      35.8899     0.999905   0.00113205 -3.27467e-05 
         250      36.1353     0.999905   0.00113212 -3.24453e-05 
         250      36.3815     0.999906   0.00113215 -3.21773e-05 
         250      36.6285     0.999908   0.00113206 -3.19744e-05 
         250      36.8765     0.999909   0.00113205 -3.17221e-05 
         250      37.1252      0.99991   0.00113209 -3.14447e-05 
         250      37.3749     0.999911   0.00113214 -3.11587e-05 
         250      37.6252     0.999911    0.0011322 -3.08756e-05 
         250      37.8765     0.999911   0.00113224 -3.06013e-05 
         250      38.1286     0.999911   0.00113226 -3.03388e-05 
         250      38.3816     0.999911   0.00113227 -3.00875e-05 
         250      38.6353     0.999912   0.00113227 -2.98452e-05 
         250      38.8898     0.999912   0.00113226 -2.96083e-05 
         250      39.1453     0.999913   0.00113226 -2.93725e-05 
         250      39.4015     0.999914   0.00113227 -2.91337e-05 
         250      39.6587     0.999915    0.0011323 -2.88881e-05 
         250      39.9166     0.999916   0.00113234  -2.8633e-05 
         250      40.1754     0.999917    0.0011324 -2.83663e-05 
         250       40.435     0.999918   0.00113247 -2.80879e-05 
         250      40.6955     0.999919   0.00113255 -2.77984e-05 
         250      40.9567     0.999919   0.00113262 -2.75003e-05 
         250      41.2189      0.99992   0.00113266 -2.71967e-05 
         250      41.4818      0.99992   0.00113269 -2.68923e-05 
         250      41.7456     0.999921   0.00113268 -2.65917e-05 
         250      42.0103     0.999921   0.00113264 -2.62995e-05 
         250      42.2757     0.999921   0.00113259 -2.60203e-05 
         250      42.5421     0.999922   0.00113253 -2.57566e-05 
         250      42.8091     0.999923   0.00113249 -2.55093e-05 
         250      43.0772     0.999923    0.0011325 -2.52755e-05 
         250      43.3459     0.999924   0.00113256 -2.50484e-05 
         250      43.6157     0.999925   0.00113269 -2.48153e-05 
         250      43.8861     0.999926   0.00113286 -2.45569e-05 
         250      44.1573     0.999927   0.00113299  -2.4245e-05 
         250      44.4296     0.999928    0.0011329 -2.38415e-05 
         250      44.7025     0.999928   0.00113231 -2.32969e-05 
         250      44.9764     0.999929   0.00113293 -2.31581e-05 
         250       45.251      0.99993   0.00113324 -2.29269e-05 
         250      45.5266      0.99993   0.00113324 -2.26514e-05 
         250      45.8029      0.99993   0.00113292 -2.24018e-05 
         250      46.0801     0.999929   0.00113242  -2.2219e-05 
         250      46.3581     0.999931   0.00113298 -2.18716e-05 
         250      46.6368     0.999932   0.00113318 -2.15476e-05 
         250      46.9166     0.999933   0.00113317  -2.1239e-05 
         250       47.197     0.999934   0.00113307 -2.09408e-05 
         250      47.4785     0.999935   0.00113295 -2.06494e-05 
         250      47.7606     0.999936   0.00113284 -2.03627e-05 
         250      48.0437     0.999937   0.00113278 -2.00787e-05 
         250      48.3275     0.999937   0.00113277 -1.97959e-05 
         250      48.6123     0.999938   0.00113279 -1.95119e-05 
         250      48.8978     0.999938   0.00113286 -1.92246e-05 
         250      49.1842     0.999939   0.00113295 -1.89306e-05 
         250      49.4714     0.999939   0.00113305 -1.86266e-05 
         250      49.7593      0.99994   0.00113317 -1.83085e-05 
         250      50.0483      0.99994    0.0011333 -1.79716e-05 
         250      50.3379      0.99994   0.00113343  -1.7612e-05 
         250      50.6286     0.999941   0.00113355 -1.72401e-05 
         250      50.9199     0.999942    0.0011335 -1.70124e-05 
         250      51.2122     0.999943   0.00113344 -1.67611e-05 
         250      51.5052     0.999944   0.00113336 -1.64908e-05 
         250      51.7992     0.999945   0.00113326 -1.62055e-05 
         250      52.0938     0.999946   0.00113316 -1.59091e-05 
         250      52.3893     0.999947   0.00113307 -1.56047e-05 
         250      52.6858     0.999948   0.00113301 -1.52947e-05 
         250       52.983     0.999949     0.001133 -1.49813e-05 
         250      53.2811     0.999949   0.00113303 -1.46658e-05 
         250        53.58      0.99995   0.00113313 -1.43494e-05 
         250      53.8798     0.999951   0.00113328 -1.40324e-05 
         250      54.1803     0.999952   0.00113345 -1.37154e-05 
         250      54.4819     0.999952   0.00113361 -1.33982e-05 
         250       54.784     0.999953   0.00113371 -1.30811e-05 
         250      55.0872     0.999954   0.00113371 -1.27634e-05 
         250      55.3911     0.999954   0.00113359 -1.24449e-05 
         250      55.6957     0.999955   0.00113335 -1.21243e-05 
         250      56.0014     0.999955   0.00113313 -1.17995e-05 
         250      56.3078     0.999956   0.00113315 -1.14676e-05 
         250      56.6152     0.999957   0.00113387 -1.11229e-05 
         250      56.9232     0.999958   0.00113408 -1.08538e-05 
         250      57.2323      0.99996   0.00113315 -1.05695e-05 
         250      57.5419     0.999961   0.00113277 -1.01916e-05 
         250      57.8527     0.999962   0.00113276 -9.79582e-06 
         250       58.164     0.999962   0.00113302 -9.45699e-06 
         250      58.4762     0.999962   0.00113354 -9.25008e-06 
         250      58.7895     0.999962    0.0011343 -9.25298e-06 
         250      59.1034     0.999963    0.0011339 -8.60851e-06 
         250      59.4183     0.999963   0.00113362 -8.08458e-06 
         250      59.7338     0.999964   0.00113344 -7.65138e-06 
         250      60.0504     0.999965   0.00113332 -7.28141e-06 
         250      60.3676     0.999966   0.00113326 -6.95407e-06 
         250      60.6858     0.999968   0.00113326 -6.65279e-06 
         250      61.0047     0.999968   0.00113332 -6.36585e-06 
         250      61.3245     0.999969   0.00113341 -6.08423e-06 
         250      61.6452      0.99997   0.00113354 -5.80159e-06 
         250      61.9666     0.999971   0.00113367 -5.51415e-06 
         250      62.2891     0.999971   0.00113378 -5.21904e-06 
         250      62.6121     0.999972   0.00113387 -4.91535e-06 
         250      62.9362     0.999972   0.00113391 -4.60232e-06 
         250       63.261     0.999973   0.00113389 -4.28064e-06 
         250      63.5868     0.999974   0.00113382 -3.95073e-06 
         250      63.9132     0.999974   0.00113371 -3.61416e-06 
         250      64.2406     0.999975   0.00113357 -3.27199e-06 
         250      64.5687     0.999976   0.00113343 -2.92628e-06 
         250      64.8976     0.999977   0.00113331 -2.57868e-06 
         250      65.2276     0.999978   0.00113323  -2.2309e-06 
         250      65.5582     0.999979   0.00113322 -1.88534e-06 
         250      65.8898      0.99998   0.00113328 -1.54352e-06 
         250      66.2221     0.999981    0.0011334 -1.20757e-06 
         250      66.5554     0.999981   0.00113355 -8.78377e-07 
         250      66.8893     0.999981   0.00113368 -5.56927e-07 
         250      67.2243     0.999982   0.00113376 -2.42292e-07 
         250      67.5599     0.999982   0.00113372  6.73499e-08 
         250      67.8964     0.999983   0.00113354  3.76727e-07 
         250      68.2338     0.999985   0.00113324  6.93771e-07 
         250       68.572     0.999986   0.00113293  1.03011e-06 
         250      68.9111     0.999988   0.00113288  1.40373e-06 
         250      69.2509     0.999989    0.0011336  1.83885e-06 
         250      69.5917     0.999989   0.00113413  2.21955e-06 
         250      69.9332      0.99999   0.00113335  2.49197e-06 
         250      70.2757     0.999991   0.00113336  2.85479e-06 
         250      70.6188     0.999991   0.00113365  3.25346e-06 
         250       70.963     0.999992   0.00113394  3.65482e-06 
         250      71.3078     0.999992   0.00113409  4.04067e-06 
         250      71.6535     0.999993   0.00113407  4.40545e-06 
         250      72.0001     0.999995   0.00113392  4.75192e-06 
         250      72.3475     0.999996    0.0011337  5.08758e-06 
         250      72.6958     0.999997   0.00113348  5.42355e-06 
         250      73.0448     0.999997   0.00113331  5.77081e-06 
         250      73.3948     0.999998   0.00113324  6.14007e-06 
         250      73.7455     0.999998   0.00113327  6.53869e-06 
         250      74.0972     0.999998   0.00113339  6.97127e-06 
         250      74.4495     0.999998   0.00113355  7.43688e-06 
         250      74.8027     0.999999   0.00113373  7.93011e-06 
         250      75.1569     0.999999   0.00113385  8.43967e-06 
         250      75.5117            1   0.00113389  8.94695e-06 
         250      75.8676            1   0.00113382  9.42746e-06 
         250      76.2241            1   0.00113366  9.84782e-06 
         250      76.5817      1.00001   0.00113347  1.01671e-05 
         250      76.9399      1.00001   0.00113337  1.03338e-05 
         250      77.2991      1.00001   0.00113354  1.02857e-05 
         250      77.6589      1.00001    0.0011332  1.06697e-05 
         250      78.0198      1.00001   0.00113279  1.12473e-05 
         250      78.3814      1.00001   0.00113272  1.16843e-05 
         250      78.7437      1.00001   0.00113289  1.20346e-05 
         250      79.1071      1.00001   0.00113315  1.23408e-05 
         250      79.4712      1.00001   0.00113338  1.26348e-05 
         250      79.8363      1.00001   0.00113349  1.29391e-05 
         250       80.202      1.00001   0.00113342  1.32661e-05 
         250      80.5687      1.00001   0.00113316  1.36203e-05 
         250      80.9361      1.00001   0.00113284  1.39984e-05 
         250      81.3045      1.00002   0.00113275  1.43925e-05 
         250      81.6736      1.00002   0.00113345  1.47902e-05 
         250      82.0435      1.00002   0.00113334  1.51271e-05 
         250      82.4144      1.00002   0.00113271  1.54594e-05 
         250       82.786      1.00002   0.00113264  1.58318e-05 
         250      83.1586      1.00002   0.00113284  1.62389e-05 
         250      83.5318      1.00002   0.00113311  1.66709e-05 
         250      83.9061      1.00002   0.00113333  1.71173e-05 
         250       84.281      1.00002   0.00113345   1.7567e-05 
         250      84.6569      1.00002   0.00113343  1.80115e-05 
         250      85.0335      1.00002    0.0011333  1.84432e-05 
         250      85.4109      1.00002    0.0011331  1.88581e-05 