Variables = x, y, u, v, p

Zone, I=400, F=POINT
         800            0            0            0 -2.25122e-05 
         800     0.000942  0.000293114  6.07515e-11 -2.25121e-05 
         800     0.003768   0.00117246  9.71521e-10 -2.25117e-05 
         800     0.008478   0.00263803  4.91803e-09  -2.2511e-05 
         800     0.015075   0.00469077  1.55494e-08 -2.25101e-05 
         800     0.023553    0.0073288  3.79567e-08  -2.2509e-05 
         800     0.033916    0.0105534  7.87049e-08 -2.25075e-05 
         800     0.046163    0.0143642  1.45807e-07 -2.25059e-05 
         800       0.0603    0.0187631  2.48785e-07 -2.25039e-05 
         800     0.076315    0.0237464  3.98481e-07 -2.25017e-05 
         800     0.094215    0.0293161  6.07332e-07 -2.24993e-05 
         800     0.113999    0.0354721  8.89169e-07 -2.24966e-05 
         800     0.135675    0.0422166  1.25944e-06 -2.24936e-05 
         800     0.159228     0.049545  1.73464e-06 -2.24904e-05 
         800     0.184664     0.057459  2.33306e-06 -2.24869e-05 
         800     0.211985    0.0659589  3.07439e-06 -2.24832e-05 
         800     0.241201    0.0750476  3.98004e-06 -2.24792e-05 
         800      0.27229    0.0847179  5.07185e-06 -2.24749e-05 
         800     0.305263    0.0949725   6.3741e-06 -2.24704e-05 
         800     0.340135     0.105815  7.91286e-06 -2.24656e-05 
         800     0.376877     0.117237  9.71334e-06 -2.24606e-05 
         800     0.415503     0.129239  1.18044e-05 -2.24553e-05 
         800     0.456013     0.141821  1.42155e-05 -2.24497e-05 
         800     0.498424     0.154986  1.69782e-05 -2.24439e-05 
         800     0.542703      0.16872  2.01221e-05 -2.24378e-05 
         800     0.588866     0.183026   2.3682e-05 -2.24314e-05 
         800     0.636912     0.197899  2.76892e-05 -2.24248e-05 
         800     0.686864     0.213341  3.21852e-05 -2.24178e-05 
         800     0.738679     0.229332  3.71972e-05 -2.24106e-05 
         800     0.792379     0.245873  4.27634e-05 -2.24032e-05 
         800     0.847962     0.262954  4.89226e-05 -2.23954e-05 
         800     0.905453     0.280572  5.57158e-05 -2.23873e-05 
         800     0.964806     0.298701  6.31731e-05 -2.23789e-05 
         800      1.02604     0.317334  7.13299e-05 -2.23701e-05 
         800      1.08919     0.336462  8.02235e-05  -2.2361e-05 
         800      1.15419     0.356052   8.9882e-05 -2.23516e-05 
         800      1.22108     0.376089  0.000100345 -2.23419e-05 
         800      1.28985     0.396549  0.000111645 -2.23317e-05 
         800      1.36054     0.417412  0.000123808 -2.23209e-05 
         800      1.43308     0.438631  0.000136832 -2.23097e-05 
         800      1.50751     0.460179  0.000150723 -2.22989e-05 
         800      1.58382     0.482017  0.000165573  -2.2287e-05 
         800      1.66204     0.504111  0.000181408 -2.22738e-05 
         800      1.74212     0.526395  0.000198123   -2.226e-05 
         800      1.82409     0.548828  0.000215691 -2.22459e-05 
         800      1.90793     0.571354  0.000234116 -2.22316e-05 
         800       1.9937      0.59392  0.000253413 -2.22167e-05 
         800      2.08131     0.616445  0.000273561 -2.22013e-05 
         800      2.17081      0.63887  0.000294535 -2.21849e-05 
         800      2.26223     0.661132   0.00031628 -2.21674e-05 
         800       2.3555      0.68314  0.000338686 -2.21487e-05 
         800      2.45065     0.704826  0.000361649 -2.21286e-05 
         800      2.54769     0.726111  0.000385049 -2.21074e-05 
         800      2.64665     0.746925  0.000408778  -2.2085e-05 
         800      2.74746     0.767175  0.000432713 -2.20616e-05 
         800      2.85014     0.786792  0.000456769 -2.20374e-05 
         800      2.95472     0.805703  0.000480857 -2.20122e-05 
         800      3.06122     0.823847  0.000504882 -2.19857e-05 
         800      3.16956     0.841146  0.000528679 -2.19575e-05 
         800      3.27979      0.85755  0.000552054 -2.19267e-05 
         800       3.3919     0.873013  0.000574757 -2.18926e-05 
         800      3.50594     0.887501  0.000596568 -2.18548e-05 
         800      3.62181     0.900973  0.000617463  -2.1814e-05 
         800      3.73958     0.913419  0.000638046 -2.17731e-05 
         800      3.85927     0.924835  0.000656743 -2.17956e-05 
         800       3.9808     0.935222  0.000674533 -2.17851e-05 
         800      4.10422     0.944599  0.000691295 -2.17475e-05 
         800      4.22952     0.952992  0.000706815  -2.1694e-05 
         800      4.35675     0.960443  0.000720982 -2.16334e-05 
         800      4.48582     0.966991  0.000733742  -2.1572e-05 
         800      4.61677     0.972696  0.000745118 -2.15139e-05 
         800      4.74961     0.977617  0.000755168 -2.14612e-05 
         800      4.88438     0.981823  0.000763976 -2.14149e-05 
         800      5.02099     0.985375  0.000771632 -2.13745e-05 
         800      5.15948     0.988346   0.00077824 -2.13389e-05 
         800      5.29985     0.990803  0.000783895 -2.13065e-05 
         800      5.44217     0.992811  0.000788688 -2.12757e-05 
         800      5.58631     0.994432  0.000792695 -2.12453e-05 
         800      5.73233     0.995724  0.000796045 -2.11802e-05 
         800      5.88024     0.996742  0.000798761 -2.10996e-05 
         800       6.0301     0.997534  0.000800887 -2.10288e-05 
         800      6.18178     0.998141  0.000802512 -2.09658e-05 
         800      6.33534       0.9986  0.000803724 -2.09082e-05 
         800      6.49085     0.998944   0.00080461 -2.08538e-05 
         800      6.64818     0.999196  0.000805249 -2.08003e-05 
         800      6.80739      0.99938  0.000805708 -2.07458e-05 
         800      6.96849     0.999511  0.000806048 -2.06892e-05 
         800      7.13154     0.999604  0.000806311 -2.06301e-05 
         800      7.29641     0.999667  0.000806525 -2.05691e-05 
         800      7.46316     0.999711  0.000806704 -2.05075e-05 
         800       7.6318     0.999739  0.000806845 -2.04475e-05 
         800      7.80239     0.999758  0.000806939 -2.03908e-05 
         800      7.97479     0.999771  0.000806972 -2.03382e-05 
         800      8.14908     0.999779  0.000806946 -2.02876e-05 
         800      8.32526     0.999785  0.000806897 -2.02316e-05 
         800      8.50338     0.999789  0.000806929 -2.01541e-05 
         800      8.68333     0.999791  0.000807256 -2.00261e-05 
         800      8.86515     0.999793  0.000807245 -2.00138e-05 
         800      9.04894     0.999794  0.000807104 -1.99936e-05 
         800      9.23453     0.999795   0.00080716 -1.99029e-05 
         800      9.42201     0.999796  0.000807285 -1.97863e-05 
         800      9.61137     0.999796  0.000807387 -1.96715e-05 
         800      9.80269     0.999796  0.000807411  -1.9573e-05 
         800      9.99583     0.999797  0.000807338 -1.94982e-05 
         800      10.1908     0.999798  0.000807195 -1.94522e-05 
         800      10.3877     0.999799  0.000807057 -1.94436e-05 
         800      10.5866       0.9998  0.000807062 -1.94903e-05 
         800      10.7873       0.9998  0.000807273 -1.95786e-05 
         800      10.9898     0.999801  0.000806845 -1.94187e-05 
         800      11.1943     0.999802  0.000806754 -1.93084e-05 
         800      11.4007     0.999802  0.000806874 -1.92233e-05 
         800      11.6089     0.999803  0.000807098 -1.91464e-05 
         800       11.819     0.999804  0.000807336 -1.90668e-05 
         800       12.031     0.999804  0.000807521 -1.89788e-05 
         800      12.2449     0.999805  0.000807615 -1.88813e-05 
         800      12.4606     0.999806  0.000807609 -1.87762e-05 
         800      12.6782     0.999806  0.000807523 -1.86678e-05 
         800      12.8978     0.999807    0.0008074 -1.85613e-05 
         800      13.1192     0.999808  0.000807291 -1.84623e-05 
         800      13.3425     0.999808  0.000807241 -1.83754e-05 
         800      13.5677     0.999809  0.000807266 -1.83031e-05 
         800      13.7948      0.99981  0.000807341 -1.82453e-05 
         800      14.0237     0.999811  0.000807391 -1.81986e-05 
         800      14.2546     0.999812  0.000807308 -1.81548e-05 
         800      14.4873     0.999812  0.000807274 -1.80901e-05 
         800      14.7219     0.999813  0.000807395 -1.79746e-05 
         800      14.9584     0.999813  0.000807362 -1.78454e-05 
         800      15.1968     0.999814  0.000807279 -1.77231e-05 
         800      15.4371     0.999815  0.000807204 -1.76176e-05 
         800      15.6792     0.999816  0.000807165 -1.75315e-05 
         800      15.9232     0.999817  0.000807166 -1.74618e-05 
         800      16.1691     0.999818  0.000807202  -1.7403e-05 
         800       16.417     0.999818  0.000807261 -1.73482e-05 
         800      16.6666     0.999819   0.00080733 -1.72909e-05 
         800      16.9182      0.99982  0.000807398  -1.7226e-05 
         800      17.1716     0.999821  0.000807457 -1.71502e-05 
         800       17.427     0.999822  0.000807504 -1.70625e-05 
         800      17.6842     0.999823  0.000807537 -1.69641e-05 
         800      17.9433     0.999823  0.000807558  -1.6858e-05 
         800      18.2042     0.999824   0.00080757 -1.67479e-05 
         800      18.4672     0.999825  0.000807573 -1.66382e-05 
         800      18.7319     0.999826  0.000807569 -1.65324e-05 
         800      18.9985     0.999827  0.000807559 -1.64327e-05 
         800       19.267     0.999828   0.00080754 -1.63389e-05 
         800      19.5375     0.999829  0.000807514 -1.62485e-05 
         800      19.8098     0.999829  0.000807482  -1.6157e-05 
         800       20.084      0.99983  0.000807448 -1.60584e-05 
         800      20.3601     0.999831  0.000807422 -1.59479e-05 
         800       20.638     0.999832  0.000807414 -1.58254e-05 
         800      20.9178     0.999833  0.000807436 -1.57001e-05 
         800      21.1995     0.999834  0.000807575 -1.56427e-05 
         800      21.4832     0.999835  0.000807731 -1.55783e-05 
         800      21.7687     0.999835  0.000807479 -1.54034e-05 
         800       22.056     0.999837  0.000807782 -1.55436e-05 
         800      22.3452     0.999838  0.000807631  -1.5413e-05 
         800      22.6365     0.999839  0.000807587 -1.51585e-05 
         800      22.9295      0.99984  0.000807535 -1.49929e-05 
         800      23.2243     0.999841  0.000807521 -1.48735e-05 
         800      23.5211     0.999841  0.000807551 -1.47732e-05 
         800      23.8199     0.999842   0.00080761 -1.46773e-05 
         800      24.1204     0.999843  0.000807677 -1.45791e-05 
         800      24.4228     0.999844  0.000807732 -1.44776e-05 
         800      24.7272     0.999845  0.000807763 -1.43743e-05 
         800      25.0334     0.999846  0.000807765 -1.42723e-05 
         800      25.3415     0.999848  0.000807742 -1.41738e-05 
         800      25.6514     0.999849  0.000807699 -1.40801e-05 
         800      25.9634      0.99985  0.000807648 -1.39905e-05 
         800      26.2771     0.999851  0.000807598 -1.39031e-05 
         800      26.5927     0.999851  0.000807558 -1.38145e-05 
         800      26.9102     0.999852  0.000807532 -1.37205e-05 
         800      27.2297     0.999853  0.000807527 -1.36173e-05 
         800       27.551     0.999855  0.000807545 -1.35025e-05 
         800      27.8741     0.999856  0.000807591 -1.33751e-05 
         800      28.1991     0.999857  0.000807668 -1.32368e-05 
         800      28.5262     0.999858  0.000807776 -1.30917e-05 
         800       28.855     0.999859  0.000807902 -1.29463e-05 
         800      29.1856     0.999859  0.000807996 -1.28071e-05 
         800      29.5183      0.99986  0.000807943 -1.26784e-05 
         800      29.8528     0.999862  0.000807715 -1.25725e-05 
         800      30.1891     0.999864  0.000807873 -1.25097e-05 
         800      30.5273     0.999865  0.000807839 -1.24311e-05 
         800      30.8676     0.999866  0.000807757 -1.23409e-05 
         800      31.2096     0.999867  0.000807704 -1.22411e-05 
         800      31.5534     0.999868   0.00080771 -1.21321e-05 
         800      31.8992     0.999868  0.000807772 -1.20142e-05 
         800      32.2469     0.999869  0.000807869 -1.18876e-05 
         800      32.5965     0.999871  0.000807975 -1.17536e-05 
         800      32.9479     0.999872  0.000808062 -1.16139e-05 
         800      33.3012     0.999873  0.000808111 -1.14711e-05 
         800      33.6565     0.999874  0.000808112 -1.13279e-05 
         800      34.0135     0.999876  0.000808065 -1.11872e-05 
         800      34.3725     0.999877  0.000807981 -1.10514e-05 
         800      34.7334     0.999878  0.000807877 -1.09217e-05 
         800      35.0962      0.99988  0.000807776  -1.0798e-05 
         800      35.4608     0.999881    0.0008077 -1.06785e-05 
         800      35.8272     0.999882  0.000807668 -1.05596e-05 
         800      36.1957     0.999883  0.000807687 -1.04363e-05 
         800       36.566     0.999884  0.000807759 -1.03035e-05 
         800      36.9381     0.999885  0.000807867 -1.01567e-05 
         800      37.3121     0.999886  0.000807986 -9.99494e-06 
         800      37.6882     0.999888  0.000808082 -9.82382e-06 
         800       38.066     0.999889  0.000808118 -9.66016e-06 
         800      38.4456      0.99989  0.000808069 -9.53743e-06 
         800      38.8272     0.999892  0.000807939 -9.51348e-06 
         800      39.2108     0.999893  0.000807781 -9.67984e-06 
         800      39.5961     0.999894  0.000808105 -9.53199e-06 
         800      39.9833     0.999893  0.000808882 -9.00111e-06 
         800      40.3724     0.999898  0.000807499 -9.00611e-06 
         800      40.7635     0.999901  0.000806679  -9.2127e-06 
         800      41.1564       0.9999   0.00080746 -8.79617e-06 
         800      41.5511       0.9999  0.000808105 -8.47678e-06 
         800      41.9479     0.999901   0.00080841 -8.29467e-06 
         800      42.3464     0.999902  0.000808462 -8.18089e-06 
         800      42.7468     0.999904  0.000808367  -8.0892e-06 
         800      43.1491     0.999905  0.000808223 -7.99169e-06 
         800      43.5534     0.999907  0.000808098 -7.87432e-06 
         800      43.9595     0.999908  0.000808026 -7.73333e-06 
         800      44.3674     0.999909  0.000808012 -7.57167e-06 
         800      44.7772      0.99991  0.000808037 -7.39632e-06 
         800      45.1891     0.999911  0.000808073 -7.21585e-06 
         800      45.6027     0.999913  0.000808093 -7.03884e-06 
         800      46.0181     0.999915   0.00080808 -6.87206e-06 
         800      46.4355     0.999916  0.000808031 -6.71984e-06 
         800      46.8549     0.999918  0.000807962 -6.58349e-06 
         800       47.276     0.999919  0.000807898  -6.4614e-06 
         800       47.699      0.99992  0.000807869 -6.34906e-06 
         800      48.1241     0.999921  0.000807895 -6.23991e-06 
         800      48.5508     0.999922  0.000807977 -6.12633e-06 
         800      48.9795     0.999923  0.000808088  -6.0006e-06 
         800        49.41     0.999924  0.000808176 -5.85642e-06 
         800      49.8426     0.999926  0.000808188 -5.69013e-06 
         800      50.2769     0.999928  0.000808111 -5.50245e-06 
         800      50.7131     0.999929  0.000808066 -5.29939e-06 
         800      51.1512     0.999927  0.000808305 -5.09837e-06 
         800      51.5914     0.999931   0.00080799  -4.9539e-06 
         800      52.0332     0.999933  0.000808087 -4.81348e-06 
         800      52.4769     0.999935  0.000808261 -4.67374e-06 
         800      52.9225     0.999936  0.000808378 -4.53142e-06 
         800      53.3702     0.999937  0.000808414 -4.38375e-06 
         800      53.8196     0.999939  0.000808401 -4.22903e-06 
         800      54.2709      0.99994  0.000808381 -4.06648e-06 
         800      54.7242     0.999942  0.000808384 -3.89646e-06 
         800      55.1792     0.999943  0.000808422 -3.72058e-06 
         800      55.6362     0.999945  0.000808482 -3.54116e-06 
         800       56.095     0.999946   0.00080854 -3.36118e-06 
         800      56.5558     0.999948  0.000808565 -3.18382e-06 
         800      57.0184     0.999949  0.000808531 -3.01231e-06 
         800      57.4829     0.999951  0.000808429 -2.84911e-06 
         800      57.9492     0.999952  0.000808267 -2.69573e-06 
         800      58.4176     0.999954  0.000808075 -2.55221e-06 
         800      58.8877     0.999955  0.000807897 -2.41703e-06 
         800      59.3597     0.999957  0.000807782 -2.28653e-06 
         800      59.8336     0.999959  0.000807771 -2.15511e-06 
         800      60.3096      0.99996  0.000807878 -2.01516e-06 
         800      60.7872     0.999962  0.000808077 -1.85776e-06 
         800      61.2667     0.999963  0.000808296 -1.67295e-06 
         800      61.7484     0.999964  0.000808414 -1.45096e-06 
         800      62.2317     0.999965  0.000808296 -1.18396e-06 
         800      62.7168     0.999967  0.000807839 -8.67561e-07 
         800      63.2039     0.999968  0.000807833 -6.34227e-07 
         800      63.6931     0.999968  0.000808504 -5.71531e-07 
         800      64.1839      0.99997  0.000808686 -4.60812e-07 
         800      64.6766     0.999974  0.000808589  -2.3182e-07 
         800      65.1712     0.999972  0.000808378  1.00325e-07 
         800      65.6679     0.999974  0.000807979  3.07178e-07 
         800      66.1663     0.999976  0.000807197  4.46504e-07 
         800      66.6665     0.999979  0.000807338  4.86345e-07 
         800      67.1687     0.999981   0.00080819  4.58043e-07 
         800      67.6729     0.999982  0.000808501  4.87097e-07 
         800      68.1788     0.999983  0.000808465  5.83997e-07 
         800      68.6866     0.999984  0.000808276  7.44161e-07 
         800      69.1963     0.999986  0.000808086  9.53986e-07 
         800      69.7081     0.999987  0.000807987  1.19583e-06 
         800      70.2215     0.999989  0.000808012   1.4514e-06 
         800      70.7368     0.999991  0.000808142  1.70502e-06 
         800      71.2543     0.999993  0.000808327  1.94512e-06 
         800      71.7734     0.999995  0.000808503  2.16475e-06 
         800      72.2943     0.999997  0.000808611  2.36228e-06 
         800      72.8172     0.999999  0.000808617  2.54038e-06 
         800      73.3422            1  0.000808514  2.70512e-06 
         800      73.8688            1  0.000808331  2.86419e-06 
         800      74.3973            1  0.000808119  3.02571e-06 
         800      74.9277            1  0.000807945  3.19627e-06 
         800      75.4602            1  0.000807869  3.37968e-06 
         800      75.9944      1.00001  0.000807922  3.57571e-06 
         800      76.5305      1.00001  0.000808091  3.78028e-06 
         800      77.0684      1.00001  0.000808307  3.98591e-06 
         800      77.6084      1.00001  0.000808457  4.18393e-06 
         800      78.1502      1.00002   0.00080842  4.36786e-06 
         800      78.6937      1.00002  0.000808149  4.53957e-06 
         800      79.2394      1.00002  0.000807807  4.71704e-06 
         800      79.7868      1.00002  0.000807981  4.94506e-06 
         800      80.3361      1.00002   0.00080889  5.17869e-06 
         800      80.8872      1.00002  0.000808024  5.17242e-06 
         800      81.4404      1.00002  0.000807997  5.30635e-06 
         800      81.9953      1.00002  0.000808283  5.50795e-06 
         800      82.5521      1.00003  0.000808576  5.73328e-06 
         800      83.1108      1.00003  0.000808731  5.95903e-06 
         800      83.6715      1.00003  0.000808707  6.17596e-06 
         800       84.234      1.00003  0.000808534  6.38312e-06 
         800      84.7983      1.00003  0.000808276  6.58404e-06 
         800      85.3645      1.00003  0.000808005  6.78315e-06 
         800      85.9328      1.00004  0.000807789  6.98394e-06 
         800      86.5028      1.00004   0.00080768  7.18754e-06 
         800      87.0747      1.00004  0.000807705  7.39327e-06 
         800      87.6486      1.00004  0.000807865   7.5994e-06 
         800      88.2243      1.00004  0.000808133  7.80484e-06 
         800      88.8018      1.00004   0.00080845  8.01241e-06 
         800      89.3812      1.00005  0.000808724   8.2321e-06 
         800      89.9627      1.00005  0.000808812  8.48555e-06 
         800      90.5458      1.00005  0.000808511  8.81049e-06 
         800      91.1309      1.00005  0.000807523   9.2667e-06 
         800      91.7178      1.00005  0.000807746  9.34852e-06 
         800      92.3069      1.00005  0.000808244  9.32784e-06 
         800      92.8976      1.00006  0.000808352  9.38854e-06 
         800      93.4901      1.00006  0.000808195  9.50506e-06 
         800      94.0846      1.00006  0.000807893   9.6585e-06 
         800      94.6812      1.00006   0.00080759  9.83748e-06 
         800      95.2794      1.00006  0.000807437  1.00378e-05 
         800      95.8796      1.00007  0.000807544  1.02616e-05 
         800      96.4818      1.00007  0.000807841  1.05151e-05 
         800      97.0857      1.00007  0.000807839  1.08042e-05 
         800      97.6915      1.00007  0.000806979  1.10951e-05 
         800      98.2991      1.00008    0.0008077  1.12766e-05 
         800      98.9089      1.00008   0.00080795  1.14892e-05 
         800      99.5203      1.00008   0.00080792  1.17151e-05 
         800      100.134      1.00008  0.000807755   1.1943e-05 
         800      100.749      1.00008  0.000807557  1.21666e-05 
         800      101.366      1.00008  0.000807394  1.23839e-05 
         800      101.985      1.00008  0.000807304  1.25951e-05 
         800      102.606      1.00008  0.000807301  1.28028e-05 
         800      103.229      1.00009  0.000807382  1.30107e-05 
         800      103.854      1.00009  0.000807531  1.32226e-05 
         800       104.48      1.00009  0.000807722  1.34424e-05 
         800      105.108      1.00009  0.000807927  1.36732e-05 
         800      105.739      1.00009   0.00080812  1.39171e-05 
         800      106.371      1.00009  0.000808274  1.41753e-05 
         800      107.005       1.0001  0.000808372  1.44472e-05 
         800      107.641       1.0001  0.000808404  1.47312e-05 
         800      108.279       1.0001  0.000808366  1.50244e-05 
         800      108.919       1.0001  0.000808264  1.53224e-05 
         800       109.56       1.0001  0.000808114  1.56201e-05 
         800      110.204       1.0001  0.000807936  1.59118e-05 
         800      110.849       1.0001  0.000807755  1.61916e-05 
         800      111.497      1.00011  0.000807597  1.64533e-05 
         800      112.146      1.00011  0.000807487  1.66916e-05 
         800      112.797      1.00011  0.000807445  1.69019e-05 
         800       113.45      1.00012  0.000807479  1.70811e-05 
         800      114.105      1.00012  0.000807586  1.72278e-05 
         800      114.761      1.00012  0.000807744  1.73427e-05 
         800       115.42      1.00012  0.000807914  1.74294e-05 
         800      116.081      1.00012  0.000808031  1.74937e-05 
         800      116.743      1.00013  0.000808114  1.76137e-05 
         800      117.407      1.00013  0.000808391  1.79459e-05 
         800      118.073      1.00013  0.000808547  1.82724e-05 
         800      118.741      1.00013  0.000808571  1.86074e-05 
         800      119.411      1.00013  0.000808442  1.89512e-05 
         800      120.083      1.00013  0.000808159   1.9287e-05 
         800      120.757      1.00013  0.000807791  1.95786e-05 
         800      121.432      1.00014  0.000807559  1.97673e-05 
         800       122.11      1.00014  0.000807944  1.97703e-05 
         800      122.789      1.00014  0.000806744  2.00858e-05 
         800       123.47      1.00013  0.000807065  2.07539e-05 
         800      124.153      1.00014  0.000808342  2.07949e-05 
         800      124.838      1.00015  0.000807729  2.09577e-05 
         800      125.525      1.00016  0.000806416  2.15632e-05 
         800      126.214      1.00016  0.000804502   2.2289e-05 
         800      126.905      1.00016  0.000806317  2.21755e-05 
         800      127.597      1.00016  0.000807521  2.21656e-05 
         800      128.292      1.00016  0.000808148  2.22406e-05 
         800      128.988      1.00016  0.000808305  2.23826e-05 
         800      129.686      1.00016  0.000808128  2.25746e-05 
         800      130.386      1.00016  0.000807759  2.28015e-05 
         800      131.088      1.00016  0.000807323  2.30499e-05 
         800      131.792      1.00016   0.00080692  2.33085e-05 
         800      132.497      1.00016  0.000806617  2.35683e-05 
         800      133.205      1.00016  0.000806448  2.38228e-05 
         800      133.915      1.00017  0.000806418  2.40676e-05 
         800      134.626      1.00018  0.000806507  2.43003e-05 
         800      135.339      1.00018   0.00080668  2.45209e-05 
         800      136.054      1.00019   0.00080689  2.47308e-05 
         800      136.771      1.00019  0.000807094   2.4933e-05 
         800       137.49       1.0002   0.00080725  2.51313e-05 
         800      138.211       1.0002  0.000807332  2.53305e-05 
         800      138.934       1.0002  0.000807326  2.55359e-05 
         800      139.658       1.0002  0.000807235  2.57523e-05 
         800      140.385       1.0002  0.000807077  2.59846e-05 
         800      141.113      1.00019  0.000806882  2.62367e-05 
         800      141.843      1.00019  0.000806686  2.65119e-05 
         800      142.575      1.00019  0.000806524  2.68117e-05 
         800      143.309      1.00019  0.000806423  2.71367e-05 
         800      144.045      1.00019  0.000806396   2.7486e-05 
         800      144.783       1.0002  0.000806437  2.78576e-05 
         800      145.523      1.00021  0.000806516   2.8248e-05 
         800      146.264      1.00022   0.00080659  2.86533e-05 
         800      147.007      1.00023  0.000806607  2.90697e-05 
         800      147.753      1.00023  0.000806535  2.94943e-05 
         800        148.5       1.0002  0.000806397  2.99253e-05 
         800      149.249      1.00014  0.000806327  3.03651e-05 
         800          150            1  0.000806643  3.08205e-05 
