Variables = x, y, u, v, p

Zone, I=2080, F=POINT
         -50            0 -2.74133e-19 -5.31894e-23     -126.014 
         -50      0.00048 -2.72482e-05 -5.38932e-09     -126.014 
         -50     0.001922 -9.57762e-05 -2.01318e-08     -126.014 
         -50     0.004326 -0.000172888 -4.06601e-08     -126.014 
         -50      0.00769 -0.000224679 -6.32263e-08     -126.014 
         -50     0.012017 -0.000235253 -8.60452e-08     -126.014 
         -50     0.017304 -0.000215181 -1.10273e-07     -126.014 
         -50     0.023553 -0.000192829 -1.39321e-07     -126.014 
         -50     0.030763 -0.000191468 -1.76516e-07     -126.014 
         -50     0.038936 -0.000207688 -2.22758e-07     -126.014 
         -50     0.048069 -0.000213457 -2.76253e-07     -126.014 
         -50     0.058163  -0.00019404 -3.35778e-07     -126.014 
         -50     0.069219 -0.000188978 -4.04279e-07     -126.014 
         -50     0.081236 -0.000200171 -4.79818e-07     -126.014 
         -50     0.094215 -0.000189518 -5.59231e-07     -126.014 
         -50     0.108155 -0.000188972 -6.44589e-07     -126.014 
         -50     0.123056 -0.000184976 -7.32267e-07     -126.014 
         -50     0.138918 -0.000181886 -8.20947e-07     -126.014 
         -50     0.155744 -0.000180424 -9.09188e-07     -126.014 
         -50     0.173529  -0.00017915 -9.95394e-07     -126.014 
         -50     0.192276 -0.000176833  -1.0781e-06     -126.014 
         -50     0.211984 -0.000174409 -1.15649e-06     -126.014 
         -50     0.232655 -0.000173909 -1.23175e-06     -126.014 
         -50     0.254285 -0.000171859  -1.3085e-06     -126.014 
         -50     0.276877 -0.000171121 -1.38367e-06     -126.014 
         -50     0.300431 -0.000170246 -1.46526e-06     -126.014 
         -50     0.324946 -0.000169406 -1.55869e-06     -126.014 
         -50     0.350424 -0.000168699 -1.66295e-06     -126.014 
         -50     0.376861 -0.000168157 -1.77202e-06     -126.014 
         -50      0.40426 -0.000167761 -1.87703e-06     -126.014 
         -50     0.432621 -0.000167473 -1.96885e-06     -126.014 
         -50     0.461945 -0.000167262 -2.04044e-06     -126.014 
         -50     0.492228 -0.000167131 -2.08798e-06     -126.013 
         -50     0.523472  -0.00016712 -2.10944e-06     -126.013 
         -50     0.555678 -0.000167286 -2.09852e-06     -126.013 
         -50     0.588845 -0.000167619 -2.03137e-06     -126.013 
         -50     0.622976 -0.000168016 -1.94812e-06     -126.013 
         -50     0.658066 -0.000168632 -2.00845e-06     -126.013 
         -50     0.694117  -0.00016941 -2.12498e-06     -126.013 
         -50      0.73113 -0.000170349 -2.28906e-06     -126.013 
         -50     0.769107 -0.000171437 -2.48967e-06     -126.013 
         -50     0.808042 -0.000172659 -2.71422e-06     -126.013 
         -50     0.847939 -0.000173991  -2.9495e-06     -126.012 
         -50     0.888797 -0.000175408  -3.1827e-06     -126.012 
         -50      0.93062 -0.000176883 -3.40264e-06     -126.012 
         -50       0.9734  -0.00017839 -3.60087e-06     -126.012 
         -50      1.01714  -0.00017991 -3.77291e-06     -126.012 
         -50      1.06185 -0.000181427 -3.91902e-06     -126.012 
         -50      1.10751 -0.000182939 -4.04486e-06     -126.011 
         -50      1.15414 -0.000184451 -4.16136e-06     -126.011 
         -50      1.20173 -0.000185981 -4.28389e-06     -126.011 
         -50      1.25028 -0.000187555 -4.43028e-06     -126.011 
         -50      1.29979 -0.000189206 -4.61739e-06      -126.01 
         -50      1.35026 -0.000190962 -4.85571e-06      -126.01 
         -50       1.4017 -0.000192839  -5.1416e-06      -126.01 
         -50      1.45409 -0.000194821 -5.44671e-06      -126.01 
         -50      1.50745 -0.000196809 -5.70051e-06     -126.009 
         -50      1.56176 -0.000198044 -5.83107e-06     -126.009 
         -50      1.61705 -0.000200152 -6.09596e-06     -126.009 
         -50      1.67329 -0.000202722 -6.43577e-06     -126.008 
         -50      1.73049 -0.000205409 -6.80171e-06     -126.008 
         -50      1.78865 -0.000207932 -7.15581e-06     -126.007 
         -50      1.84778 -0.000210079 -7.47109e-06     -126.007 
         -50      1.90786 -0.000211704 -7.73123e-06     -126.006 
         -50      1.96891 -0.000212724 -7.93038e-06     -126.006 
         -50      2.03092 -0.000213113 -8.07229e-06     -126.005 
         -50      2.09389 -0.000212901 -8.16938e-06     -126.005 
         -50      2.15782 -0.000212165 -8.24156e-06     -126.004 
         -50      2.22272 -0.000211016 -8.31474e-06     -126.004 
         -50      2.28857 -0.000209594 -8.41916e-06     -126.003 
         -50      2.35539 -0.000208058 -8.58749e-06     -126.003 
         -50      2.42317 -0.000206567 -8.85286e-06     -126.002 
         -50      2.49191 -0.000205278  -9.2466e-06     -126.001 
         -50      2.56161 -0.000204324 -9.79621e-06         -126 
         -50      2.63226 -0.000203812 -1.05231e-05         -126 
         -50      2.70389 -0.000203805 -1.14409e-05     -125.999 
         -50      2.77648 -0.000204317 -1.25529e-05     -125.998 
         -50      2.85002  -0.00020531 -1.38515e-05     -125.997 
         -50      2.92453 -0.000206686 -1.53167e-05     -125.996 
         -50            3 -0.000208296 -1.69163e-05     -125.995 
         -25            0           -0           -0     -120.935 
         -25      0.00048 -1.99868e-05 -2.00204e-09     -120.935 
         -25     0.001922 -7.03007e-05 -7.10895e-09     -120.935 
         -25     0.004326 -0.000127079 -1.29059e-08     -120.935 
         -25      0.00769 -0.000165589 -1.62532e-08     -120.935 
         -25     0.012017  -0.00017426 -1.41605e-08     -120.935 
         -25     0.017304 -0.000160858 -4.27748e-09     -120.935 
         -25     0.023553 -0.000146146  1.52677e-08     -120.935 
         -25     0.030763 -0.000147161  4.65871e-08     -120.935 
         -25     0.038936 -0.000161436  9.27918e-08     -120.935 
         -25     0.048069 -0.000168507  1.57869e-07     -120.935 
         -25     0.058163 -0.000157611  2.45341e-07     -120.935 
         -25     0.069219  -0.00015761  3.56705e-07     -120.935 
         -25     0.081236 -0.000169845  4.94632e-07     -120.935 
         -25     0.094215 -0.000166426  6.61643e-07     -120.935 
         -25     0.108155 -0.000170614  8.57503e-07     -120.935 
         -25     0.123056 -0.000172413  1.08299e-06     -120.935 
         -25     0.138918 -0.000174906  1.33747e-06     -120.935 
         -25     0.155744 -0.000178522  1.61985e-06     -120.935 
         -25     0.173529  -0.00018211  1.92838e-06     -120.935 
         -25     0.192276 -0.000184679  2.26091e-06     -120.935 
         -25     0.211984 -0.000186838  2.61472e-06     -120.935 
         -25     0.232655 -0.000190008   2.9871e-06     -120.935 
         -25     0.254285 -0.000191604  3.37601e-06     -120.935 
         -25     0.276877 -0.000193686  3.77755e-06     -120.935 
         -25     0.300431 -0.000195182  4.19026e-06     -120.935 
         -25     0.324946 -0.000196218  4.61431e-06     -120.935 
         -25     0.350424 -0.000196873  5.04923e-06     -120.935 
         -25     0.376861  -0.00019718   5.4938e-06     -120.935 
         -25      0.40426 -0.000197143  5.94637e-06     -120.935 
         -25     0.432621 -0.000196748  6.40497e-06     -120.935 
         -25     0.461945 -0.000195989  6.86754e-06     -120.935 
         -25     0.492228 -0.000194879  7.33211e-06     -120.935 
         -25     0.523472 -0.000193459  7.79714e-06     -120.935 
         -25     0.555678 -0.000191778  8.26131e-06     -120.935 
         -25     0.588845 -0.000189841  8.72317e-06     -120.935 
         -25     0.622976 -0.000187618  9.19358e-06     -120.935 
         -25     0.658066  -0.00018524  9.68833e-06     -120.935 
         -25     0.694117 -0.000182674  1.01883e-05     -120.935 
         -25      0.73113 -0.000179987  1.06885e-05     -120.935 
         -25     0.769107 -0.000177238  1.11848e-05     -120.935 
         -25     0.808042 -0.000174481  1.16735e-05     -120.934 
         -25     0.847939 -0.000171763  1.21521e-05     -120.934 
         -25     0.888797 -0.000169121  1.26182e-05     -120.934 
         -25      0.93062  -0.00016658  1.30701e-05     -120.934 
         -25       0.9734 -0.000164159  1.35058e-05     -120.934 
         -25      1.01714 -0.000161863  1.39232e-05     -120.934 
         -25      1.06185  -0.00015969  1.43199e-05     -120.934 
         -25      1.10751 -0.000157627  1.46929e-05     -120.934 
         -25      1.15414 -0.000155659  1.50389e-05     -120.934 
         -25      1.20173 -0.000153767  1.53542e-05     -120.934 
         -25      1.25028 -0.000151933  1.56355e-05     -120.934 
         -25      1.29979 -0.000150147  1.58808e-05     -120.934 
         -25      1.35026 -0.000148414  1.60909e-05     -120.934 
         -25       1.4017 -0.000146763  1.62716e-05     -120.933 
         -25      1.45409 -0.000145253  1.64367e-05     -120.933 
         -25      1.50745 -0.000143982  1.66072e-05     -120.933 
         -25      1.56176 -0.000142403  1.65988e-05     -120.933 
         -25      1.61705 -0.000140729  1.66386e-05     -120.933 
         -25      1.67329   -0.0001391   1.6678e-05     -120.933 
         -25      1.73049 -0.000137634   1.6677e-05     -120.933 
         -25      1.78865 -0.000136428  1.66041e-05     -120.933 
         -25      1.84778 -0.000135555  1.64366e-05     -120.932 
         -25      1.90786 -0.000135063  1.61606e-05     -120.932 
         -25      1.96891 -0.000134978  1.57709e-05     -120.932 
         -25      2.03092 -0.000135303  1.52708e-05     -120.932 
         -25      2.09389  -0.00013602  1.46712e-05     -120.932 
         -25      2.15782 -0.000137091  1.39901e-05     -120.931 
         -25      2.22272 -0.000138463  1.32516e-05     -120.931 
         -25      2.28857 -0.000140067  1.24847e-05     -120.931 
         -25      2.35539 -0.000141826   1.1722e-05     -120.931 
         -25      2.42317 -0.000143654  1.09983e-05      -120.93 
         -25      2.49191 -0.000145463  1.03492e-05      -120.93 
         -25      2.56161 -0.000147168  9.80872e-06      -120.93 
         -25      2.63226 -0.000148687  9.40844e-06      -120.93 
         -25      2.70389 -0.000149951  9.17518e-06     -120.929 
         -25      2.77648 -0.000150905  9.12964e-06     -120.929 
         -25      2.85002 -0.000151512   9.2847e-06     -120.929 
         -25      2.92453 -0.000151757   9.6442e-06     -120.928 
         -25            3 -0.000151647   1.0202e-05     -120.928 
           0            0            0            0     -116.733 
           0      0.00048  -5.1602e-05  4.18363e-05     -116.733 
           0     0.001922 -0.000180002  0.000146526     -116.734 
           0     0.004326 -0.000320432  0.000262345     -116.735 
           0      0.00769 -0.000407326  0.000334982     -116.736 
           0     0.012017 -0.000413047  0.000337634     -116.738 
           0     0.017304 -0.000363408  0.000285085      -116.74 
           0     0.023553  -0.00031706  0.000221734     -116.741 
           0     0.030763 -0.000316614  0.000187605     -116.743 
           0     0.038936 -0.000345999  0.000185042     -116.745 
           0     0.048069 -0.000342108  0.000179306     -116.746 
           0     0.058163 -0.000283309  0.000150934     -116.748 
           0     0.069219 -0.000273478  0.000150641      -116.75 
           0     0.081236 -0.000305563  0.000152863     -116.752 
           0     0.094215 -0.000273374  0.000129751     -116.754 
           0     0.108155  -0.00026935  0.000128955     -116.756 
           0     0.123056 -0.000259831  0.000121504     -116.758 
           0     0.138918 -0.000253089  0.000114321      -116.76 
           0     0.155744  -0.00024944  0.000109323     -116.762 
           0     0.173529 -0.000245082  0.000105207     -116.764 
           0     0.192276 -0.000237779  0.000100472     -116.766 
           0     0.211984 -0.000230947  9.59704e-05     -116.768 
           0     0.232655 -0.000229528  9.35302e-05     -116.771 
           0     0.254285 -0.000222786  8.84653e-05     -116.773 
           0     0.276877 -0.000218929  8.56244e-05     -116.775 
           0     0.300431 -0.000214776  8.23828e-05     -116.777 
           0     0.324946 -0.000210812  7.92712e-05     -116.779 
           0     0.350424 -0.000207124   7.6349e-05     -116.781 
           0     0.376861 -0.000203679   7.3539e-05     -116.784 
           0      0.40426 -0.000200465  7.08359e-05     -116.786 
           0     0.432621 -0.000197485  6.82486e-05     -116.788 
           0     0.461945 -0.000194729  6.57389e-05      -116.79 
           0     0.492228 -0.000192204  6.33008e-05     -116.792 
           0     0.523472 -0.000189887  6.09545e-05     -116.795 
           0     0.555678 -0.000187767  5.86842e-05     -116.797 
           0     0.588845 -0.000185822  5.64742e-05     -116.799 
           0     0.622976 -0.000184028  5.43181e-05     -116.801 
           0     0.658066 -0.000182361  5.22298e-05     -116.803 
           0     0.694117 -0.000180779  5.01695e-05     -116.806 
           0      0.73113  -0.00017926  4.81754e-05     -116.808 
           0     0.769107 -0.000177762  4.62479e-05      -116.81 
           0     0.808042 -0.000176228  4.43739e-05     -116.812 
           0     0.847939 -0.000174663  4.25394e-05     -116.814 
           0     0.888797  -0.00017299  4.07524e-05     -116.816 
           0      0.93062 -0.000171201  3.90169e-05     -116.819 
           0       0.9734  -0.00016929  3.73363e-05     -116.821 
           0      1.01714 -0.000167258  3.57108e-05     -116.823 
           0      1.06185 -0.000165113  3.41376e-05     -116.825 
           0      1.10751 -0.000162872  3.26129e-05     -116.827 
           0      1.15414 -0.000160563  3.11375e-05     -116.829 
           0      1.20173 -0.000158223  2.97282e-05     -116.831 
           0      1.25028 -0.000155883   2.8367e-05     -116.833 
           0      1.29979 -0.000153596  2.70487e-05     -116.835 
           0      1.35026 -0.000151378  2.57778e-05     -116.837 
           0       1.4017 -0.000149237   2.4555e-05     -116.839 
           0      1.45409  -0.00014718    2.338e-05     -116.841 
           0      1.50745 -0.000145206  2.22513e-05     -116.843 
           0      1.56176 -0.000143315   2.1165e-05     -116.845 
           0      1.61705 -0.000141498  2.01133e-05     -116.847 
           0      1.67329 -0.000139744  1.91093e-05     -116.849 
           0      1.73049 -0.000138057  1.81652e-05     -116.851 
           0      1.78865  -0.00013644  1.72789e-05     -116.853 
           0      1.84778 -0.000134897   1.6442e-05     -116.855 
           0      1.90786 -0.000133436   1.5642e-05     -116.857 
           0      1.96891 -0.000132065  1.48661e-05     -116.858 
           0      2.03092 -0.000130796   1.4109e-05      -116.86 
           0      2.09389 -0.000129631   1.3382e-05     -116.862 
           0      2.15782  -0.00012863  1.26768e-05     -116.864 
           0      2.22272 -0.000127735  1.20181e-05     -116.865 
           0      2.28857 -0.000126867  1.14204e-05     -116.867 
           0      2.35539  -0.00012595  1.08939e-05     -116.869 
           0      2.42317 -0.000124927  1.04444e-05      -116.87 
           0      2.49191 -0.000123754  1.00783e-05     -116.872 
           0      2.56161 -0.000122405  9.80921e-06     -116.874 
           0      2.63226 -0.000120857  9.67106e-06     -116.875 
           0      2.70389 -0.000119094  9.65973e-06     -116.877 
           0      2.77648 -0.000117177  9.68379e-06     -116.878 
           0      2.85002 -0.000115147  9.81751e-06      -116.88 
           0      2.92453  -0.00011308  9.96879e-06     -116.881 
           0            3 -0.000111061  1.01082e-05     -116.883 
          20            0            0            0     -114.215 
          20      0.00048 -1.56993e-05 -1.19676e-09     -114.215 
          20     0.001922 -5.52377e-05 -4.37341e-09     -114.215 
          20     0.004326 -9.99132e-05 -8.44937e-09     -114.215 
          20      0.00769 -0.000130337 -1.21218e-08     -114.215 
          20     0.012017 -0.000137427 -1.43505e-08     -114.215 
          20     0.017304 -0.000127246 -1.45918e-08     -114.215 
          20     0.023553 -0.000116039 -1.26512e-08     -114.215 
          20     0.030763 -0.000117129 -8.18266e-09     -114.215 
          20     0.038936 -0.000128569 -1.79538e-10     -114.215 
          20     0.048069 -0.000134314  1.30338e-08     -114.215 
          20     0.058163 -0.000125931  3.30405e-08     -114.215 
          20     0.069219 -0.000126039  6.04505e-08     -114.215 
          20     0.081236 -0.000135693   9.6831e-08     -114.215 
          20     0.094215 -0.000133065  1.43915e-07     -114.215 
          20     0.108155 -0.000136398  2.02031e-07     -114.215 
          20     0.123056 -0.000137883  2.72322e-07     -114.215 
          20     0.138918 -0.000139963  3.55206e-07     -114.215 
          20     0.155744 -0.000142993  4.50881e-07     -114.215 
          20     0.173529 -0.000146091   5.5918e-07     -114.215 
          20     0.192276 -0.000148494  6.79573e-07     -114.215 
          20     0.211984 -0.000150685  8.11083e-07     -114.215 
          20     0.232655 -0.000153783  9.52454e-07     -114.215 
          20     0.254285 -0.000155757  1.10262e-06     -114.215 
          20     0.276877  -0.00015822  1.25911e-06     -114.215 
          20     0.300431 -0.000160323  1.41966e-06     -114.215 
          20     0.324946 -0.000162159   1.5831e-06     -114.215 
          20     0.350424 -0.000163787  1.74747e-06     -114.215 
          20     0.376861 -0.000165236  1.91023e-06     -114.215 
          20      0.40426 -0.000166517   2.0687e-06     -114.215 
          20     0.432621 -0.000167632  2.22037e-06     -114.215 
          20     0.461945  -0.00016859   2.3633e-06     -114.215 
          20     0.492228 -0.000169416  2.49629e-06     -114.215 
          20     0.523472 -0.000170154  2.61871e-06     -114.215 
          20     0.555678 -0.000170847  2.72971e-06     -114.215 
          20     0.588845 -0.000171486  2.82646e-06     -114.215 
          20     0.622976 -0.000172003  2.90677e-06     -114.215 
          20     0.658066  -0.00017249  2.98024e-06     -114.215 
          20     0.694117 -0.000172877  3.04451e-06     -114.215 
          20      0.73113  -0.00017312  3.10011e-06     -114.215 
          20     0.769107 -0.000173185  3.14788e-06     -114.215 
          20     0.808042 -0.000173048   3.1889e-06     -114.215 
          20     0.847939 -0.000172699  3.22442e-06     -114.215 
          20     0.888797 -0.000172133  3.25569e-06     -114.215 
          20      0.93062 -0.000171355  3.28384e-06     -114.215 
          20       0.9734 -0.000170376  3.30975e-06     -114.214 
          20      1.01714  -0.00016921  3.33391e-06     -114.214 
          20      1.06185 -0.000167871  3.35633e-06     -114.214 
          20      1.10751 -0.000166372  3.37647e-06     -114.214 
          20      1.15414 -0.000164725  3.39328e-06     -114.214 
          20      1.20173 -0.000162933  3.40529e-06     -114.214 
          20      1.25028 -0.000161001  3.41092e-06     -114.214 
          20      1.29979  -0.00015893  3.40891e-06     -114.214 
          20      1.35026 -0.000156727  3.39902e-06     -114.214 
          20       1.4017 -0.000154415  3.38306e-06     -114.214 
          20      1.45409 -0.000152049  3.36627e-06     -114.214 
          20      1.50745 -0.000149733  3.35881e-06     -114.214 
          20      1.56176 -0.000147291  3.34315e-06     -114.214 
          20      1.61705  -0.00014461  3.32318e-06     -114.214 
          20      1.67329 -0.000141813  3.29445e-06     -114.214 
          20      1.73049 -0.000138998  3.25415e-06     -114.214 
          20      1.78865 -0.000136246  3.20109e-06     -114.213 
          20      1.84778 -0.000133614  3.13562e-06     -114.213 
          20      1.90786 -0.000131143  3.05956e-06     -114.213 
          20      1.96891 -0.000128851  2.97599e-06     -114.213 
          20      2.03092  -0.00012674  2.88907e-06     -114.213 
          20      2.09389 -0.000124799  2.80383e-06     -114.213 
          20      2.15782 -0.000123001  2.72587e-06     -114.213 
          20      2.22272 -0.000121312  2.66106e-06     -114.213 
          20      2.28857 -0.000119691  2.61519e-06     -114.213 
          20      2.35539 -0.000118095  2.59365e-06     -114.212 
          20      2.42317 -0.000116483    2.601e-06     -114.212 
          20      2.49191 -0.000114818  2.64069e-06     -114.212 
          20      2.56161 -0.000113075   2.7146e-06     -114.212 
          20      2.63226 -0.000111239  2.82281e-06     -114.212 
          20      2.70389 -0.000109312   2.9633e-06     -114.212 
          20      2.77648 -0.000107315  3.13166e-06     -114.211 
          20      2.85002 -0.000105289  3.32113e-06     -114.211 
          20      2.92453 -0.000103291  3.52248e-06     -114.211 
          20            3 -0.000101399  3.72427e-06     -114.211 
          40            0            0            0     -111.573 
          40      0.00048 -1.43802e-05 -3.96074e-10     -111.573 
          40     0.001922 -5.05179e-05 -1.25062e-09     -111.573 
          40     0.004326 -9.10935e-05 -1.62153e-09     -111.573 
          40      0.00769 -0.000118162 -1.25794e-10     -111.573 
          40     0.012017 -0.000123341  4.87796e-09     -111.573 
          40     0.017304 -0.000112299   1.5168e-08     -111.573 
          40     0.023553 -0.000100145  3.26841e-08     -111.573 
          40     0.030763  -9.9288e-05  5.96378e-08     -111.573 
          40     0.038936 -0.000107975  9.86461e-08     -111.573 
          40     0.048069  -0.00011139  1.52636e-07     -111.573 
          40     0.058163 -0.000101766  2.24546e-07     -111.573 
          40     0.069219 -0.000100118  3.16941e-07     -111.573 
          40     0.081236 -0.000107466  4.32582e-07     -111.573 
          40     0.094215 -0.000103606  5.74112e-07     -111.573 
          40     0.108155 -0.000105475   7.4343e-07     -111.573 
          40     0.123056 -0.000105852  9.42419e-07     -111.573 
          40     0.138918 -0.000107009  1.17238e-06     -111.573 
          40     0.155744 -0.000109279  1.43423e-06     -111.573 
          40     0.173529 -0.000111839  1.72831e-06     -111.573 
          40     0.192276 -0.000113971  2.05461e-06     -111.573 
          40     0.211984  -0.00011611   2.4126e-06     -111.573 
          40     0.232655 -0.000119271  2.80146e-06     -111.573 
          40     0.254285  -0.00012155  3.22009e-06     -111.573 
          40     0.276877 -0.000124414  3.66696e-06     -111.573 
          40     0.300431 -0.000127047  4.14056e-06     -111.573 
          40     0.324946 -0.000129501  4.63954e-06     -111.573 
          40     0.350424 -0.000131795  5.16246e-06     -111.573 
          40     0.376861 -0.000133916   5.7077e-06     -111.573 
          40      0.40426 -0.000135834   6.2739e-06     -111.573 
          40     0.432621 -0.000137509  6.85984e-06     -111.573 
          40     0.461945 -0.000138911   7.4646e-06     -111.573 
          40     0.492228 -0.000140028  8.08751e-06     -111.573 
          40     0.523472 -0.000140873  8.72817e-06     -111.573 
          40     0.555678 -0.000141464   9.3861e-06     -111.573 
          40     0.588845 -0.000141792  1.00601e-05     -111.573 
          40     0.622976 -0.000141805  1.07486e-05     -111.573 
          40     0.658066 -0.000141598   1.1454e-05     -111.573 
          40     0.694117 -0.000141149  1.21748e-05     -111.573 
          40      0.73113 -0.000140475   1.2909e-05     -111.573 
          40     0.769107   -0.0001396  1.36544e-05     -111.573 
          40     0.808042 -0.000138559  1.44083e-05     -111.573 
          40     0.847939 -0.000137391  1.51682e-05     -111.573 
          40     0.888797 -0.000136141  1.59312e-05     -111.573 
          40      0.93062 -0.000134856   1.6694e-05     -111.573 
          40       0.9734 -0.000133581  1.74531e-05     -111.573 
          40      1.01714 -0.000132359  1.82047e-05     -111.573 
          40      1.06185 -0.000131227  1.89444e-05     -111.573 
          40      1.10751 -0.000130212   1.9668e-05     -111.573 
          40      1.15414  -0.00012933  2.03709e-05     -111.573 
          40      1.20173 -0.000128587  2.10485e-05     -111.573 
          40      1.25028 -0.000127974  2.16965e-05     -111.573 
          40      1.29979 -0.000127477  2.23117e-05     -111.573 
          40      1.35026 -0.000127076  2.28921e-05     -111.573 
          40       1.4017 -0.000126758  2.34377e-05     -111.573 
          40      1.45409 -0.000126526  2.39519e-05     -111.573 
          40      1.50745 -0.000126414  2.44429e-05     -111.573 
          40      1.56176 -0.000125734  2.49023e-05     -111.573 
          40      1.61705 -0.000124767  2.52987e-05     -111.573 
          40      1.67329 -0.000123569  2.56373e-05     -111.573 
          40      1.73049 -0.000122197  2.59229e-05     -111.573 
          40      1.78865 -0.000120707  2.61593e-05     -111.573 
          40      1.84778 -0.000119153  2.63496e-05     -111.573 
          40      1.90786 -0.000117588  2.64956e-05     -111.573 
          40      1.96891 -0.000116059  2.65986e-05     -111.573 
          40      2.03092 -0.000114612  2.66586e-05     -111.573 
          40      2.09389 -0.000113288  2.66751e-05     -111.573 
          40      2.15782 -0.000112121  2.66464e-05     -111.573 
          40      2.22272 -0.000111143  2.65706e-05     -111.573 
          40      2.28857 -0.000110376  2.64448e-05     -111.573 
          40      2.35539  -0.00010984  2.62659e-05     -111.572 
          40      2.42317 -0.000109543  2.60306e-05     -111.572 
          40      2.49191  -0.00010949  2.57355e-05     -111.572 
          40      2.56161 -0.000109676  2.53775e-05     -111.572 
          40      2.63226 -0.000110089  2.49541e-05     -111.572 
          40      2.70389 -0.000110712  2.44634e-05     -111.572 
          40      2.77648 -0.000111516  2.39048e-05     -111.572 
          40      2.85002 -0.000112469  2.32791e-05     -111.572 
          40      2.92453 -0.000113533  2.25889e-05     -111.572 
          40            3 -0.000114662   2.1839e-05     -111.572 
          60            0           -0           -0     -109.069 
          60      0.00048  -1.3841e-05 -2.31683e-10     -109.069 
          60     0.001922 -4.86323e-05 -6.78277e-10     -109.069 
          60     0.004326 -8.77233e-05 -6.29875e-10     -109.069 
          60      0.00769  -0.00011386  9.82864e-10     -109.069 
          60     0.012017 -0.000118978  5.47788e-09     -109.069 
          60     0.017304 -0.000108513    1.434e-08     -109.069 
          60     0.023553 -9.69767e-05  2.92285e-08     -109.069 
          60     0.030763 -9.62796e-05  5.20234e-08     -109.069 
          60     0.038936 -0.000104724  8.48877e-08     -109.069 
          60     0.048069 -0.000108055  1.30174e-07     -109.069 
          60     0.058163 -9.87938e-05  1.90225e-07     -109.069 
          60     0.069219 -9.71276e-05  2.67106e-07     -109.069 
          60     0.081236 -0.000104022  3.62905e-07     -109.069 
          60     0.094215 -0.000100051  4.79521e-07     -109.069 
          60     0.108155 -0.000101483  6.18248e-07     -109.069 
          60     0.123056 -0.000101374  7.80222e-07     -109.069 
          60     0.138918 -0.000101903  9.66047e-07     -109.069 
          60     0.155744 -0.000103391  1.17593e-06     -109.069 
          60     0.173529 -0.000105048  1.40957e-06     -109.069 
          60     0.192276 -0.000106194  1.66635e-06     -109.069 
          60     0.211984 -0.000107251  1.94529e-06     -109.069 
          60     0.232655 -0.000109211   2.2452e-06     -109.069 
          60     0.254285 -0.000110254  2.56462e-06     -109.069 
          60     0.276877 -0.000111807  2.90222e-06     -109.069 
          60     0.300431   -0.0001131  3.25661e-06     -109.069 
          60     0.324946 -0.000114202  3.62642e-06     -109.069 
          60     0.350424 -0.000115144  4.01058e-06     -109.069 
          60     0.376861 -0.000115928  4.40816e-06     -109.069 
          60      0.40426 -0.000116536  4.81859e-06     -109.069 
          60     0.432621 -0.000116941  5.24141e-06     -109.069 
          60     0.461945 -0.000117121  5.67631e-06     -109.069 
          60     0.492228 -0.000117072  6.12293e-06     -109.069 
          60     0.523472  -0.00011681  6.58094e-06     -109.069 
          60     0.555678 -0.000116364  7.04988e-06     -109.069 
          60     0.588845 -0.000115735  7.52919e-06     -109.069 
          60     0.622976 -0.000114902  8.01747e-06     -109.069 
          60     0.658066 -0.000113943  8.51316e-06     -109.069 
          60     0.694117 -0.000112854  9.01479e-06     -109.069 
          60      0.73113 -0.000111704  9.51898e-06     -109.069 
          60     0.769107  -0.00011056  1.00222e-05     -109.069 
          60     0.808042  -0.00010948  1.05209e-05     -109.069 
          60     0.847939 -0.000108516  1.10114e-05     -109.069 
          60     0.888797  -0.00010771  1.14905e-05     -109.069 
          60      0.93062 -0.000107089  1.19549e-05     -109.069 
          60       0.9734 -0.000106673  1.24019e-05     -109.069 
          60      1.01714 -0.000106467  1.28293e-05     -109.069 
          60      1.06185 -0.000106461  1.32355e-05     -109.068 
          60      1.10751 -0.000106638  1.36194e-05     -109.068 
          60      1.15414 -0.000106966  1.39807e-05     -109.068 
          60      1.20173 -0.000107411  1.43196e-05     -109.068 
          60      1.25028 -0.000107931  1.46367e-05     -109.068 
          60      1.29979 -0.000108488  1.49329e-05     -109.068 