Variables = x, y, u, v, p

Zone, I=2080, F=POINT
         -50            0   7.6165e-20  1.57932e-23      46.4828 
         -50      0.00048  7.64327e-06  1.61401e-09      46.4828 
         -50     0.001922  2.76892e-05  6.19522e-09      46.4828 
         -50     0.004326  5.28322e-05  1.31488e-08      46.4828 
         -50      0.00769  7.49963e-05  2.20695e-08      46.4828 
         -50     0.012017  8.93148e-05  3.33279e-08      46.4828 
         -50     0.017304  9.61102e-05  4.83389e-08      46.4828 
         -50     0.023553  9.97216e-05  6.94239e-08      46.4828 
         -50     0.030763  0.000104456  9.92143e-08      46.4828 
         -50     0.038936  0.000110485  1.40072e-07      46.4828 
         -50     0.048069  0.000113735  1.93973e-07      46.4828 
         -50     0.058163  0.000112195  2.63261e-07      46.4828 
         -50     0.069219  0.000113157  3.51212e-07      46.4828 
         -50     0.081236  0.000117552  4.58784e-07      46.4828 
         -50     0.094215  0.000117632  5.89448e-07      46.4828 
         -50     0.108155  0.000119361  7.47383e-07      46.4828 
         -50     0.123056  0.000120344  9.34574e-07      46.4828 
         -50     0.138918  0.000121197  1.15412e-06      46.4828 
         -50     0.155744  0.000122045  1.40916e-06      46.4828 
         -50     0.173529  0.000122719  1.70245e-06      46.4827 
         -50     0.192276   0.00012308  2.03613e-06      46.4827 
         -50     0.211984  0.000123288  2.41033e-06      46.4827 
         -50     0.232655  0.000123661  2.82122e-06      46.4827 
         -50     0.254285  0.000123782  3.25631e-06      46.4827 
         -50     0.276877  0.000124064  3.69862e-06      46.4827 
         -50     0.300431  0.000124353  4.11466e-06      46.4827 
         -50     0.324946  0.000124708  4.47813e-06      46.4827 
         -50     0.350424  0.000125163   4.7913e-06      46.4827 
         -50     0.376861  0.000125733  5.08285e-06      46.4827 
         -50      0.40426  0.000126415  5.40173e-06      46.4826 
         -50     0.432621  0.000127198  5.80605e-06      46.4826 
         -50     0.461945  0.000128069  6.34758e-06      46.4826 
         -50     0.492228  0.000129018  7.05156e-06      46.4826 
         -50     0.523472  0.000130042  7.89368e-06      46.4826 
         -50     0.555678  0.000131138    8.775e-06      46.4825 
         -50     0.588845  0.000132277  9.49806e-06      46.4825 
         -50     0.622976  0.000133392  9.84598e-06      46.4825 
         -50     0.658066  0.000134447  1.02377e-05      46.4824 
         -50     0.694117  0.000135363  1.07324e-05      46.4824 
         -50      0.73113  0.000136085  1.12842e-05      46.4824 
         -50     0.769107  0.000136564  1.18585e-05      46.4823 
         -50     0.808042  0.000136762  1.24316e-05      46.4823 
         -50     0.847939  0.000136649  1.29898e-05      46.4822 
         -50     0.888797  0.000136205   1.3528e-05      46.4822 
         -50      0.93062  0.000135419  1.40468e-05      46.4821 
         -50       0.9734   0.00013429  1.45503e-05       46.482 
         -50      1.01714  0.000132825  1.50434e-05       46.482 
         -50      1.06185  0.000131041  1.55281e-05      46.4819 
         -50      1.10751  0.000128956  1.60017e-05      46.4818 
         -50      1.15414  0.000126598  1.64549e-05      46.4817 
         -50      1.20173  0.000123993  1.68717e-05      46.4817 
         -50      1.25028  0.000121171  1.72324e-05      46.4816 
         -50      1.29979  0.000118158  1.75183e-05      46.4815 
         -50      1.35026  0.000114977  1.77228e-05      46.4814 
         -50       1.4017  0.000111652  1.78667e-05      46.4813 
         -50      1.45409  0.000108199  1.80218e-05      46.4811 
         -50      1.50745  0.000104623  1.83317e-05       46.481 
         -50      1.56176  0.000100375  1.82897e-05      46.4809 
         -50      1.61705  9.62817e-05  1.83866e-05      46.4808 
         -50      1.67329  9.24718e-05  1.85794e-05      46.4806 
         -50      1.73049  8.90446e-05  1.88295e-05      46.4805 
         -50      1.78865  8.60722e-05   1.9103e-05      46.4803 
         -50      1.84778  8.35993e-05  1.93708e-05      46.4801 
         -50      1.90786  8.16448e-05  1.96088e-05        46.48 
         -50      1.96891  8.02027e-05  1.97983e-05      46.4798 
         -50      2.03092  7.92448e-05  1.99251e-05      46.4796 
         -50      2.09389  7.87241e-05  1.99804e-05      46.4794 
         -50      2.15782   7.8578e-05  1.99594e-05      46.4792 
         -50      2.22272  7.87323e-05  1.98618e-05       46.479 
         -50      2.28857  7.91062e-05   1.9691e-05      46.4788 
         -50      2.35539  7.96169e-05  1.94531e-05      46.4785 
         -50      2.42317  8.01845e-05   1.9157e-05      46.4783 
         -50      2.49191  8.07374e-05  1.88131e-05       46.478 
         -50      2.56161  8.12166e-05   1.8433e-05      46.4777 
         -50      2.63226  8.15806e-05  1.80283e-05      46.4775 
         -50      2.70389  8.18082e-05    1.761e-05      46.4772 
         -50      2.77648  8.19016e-05  1.71885e-05      46.4769 
         -50      2.85002  8.18869e-05  1.67718e-05      46.4765 
         -50      2.92453  8.18132e-05  1.63664e-05      46.4762 
         -50            3  8.17488e-05  1.59761e-05      46.4759 
         -25            0           -0           -0      44.6109 
         -25      0.00048  5.26689e-06  6.52338e-10      44.6109 
         -25     0.001922   1.8971e-05  2.42525e-09      44.6109 
         -25     0.004326  3.58079e-05  4.83339e-09      44.6109 
         -25      0.00769  4.99275e-05  7.28066e-09      44.6109 
         -25     0.012017  5.78317e-05  9.26826e-09      44.6109 
         -25     0.017304  5.98237e-05  1.04889e-08      44.6109 
         -25     0.023553   5.9146e-05  1.07607e-08      44.6109 
         -25     0.030763  5.90301e-05  9.80546e-09      44.6109 
         -25     0.038936  5.96987e-05  7.02412e-09      44.6109 
         -25     0.048069  5.82818e-05  1.47821e-09      44.6109 
         -25     0.058163  5.34089e-05 -7.83001e-09      44.6109 
         -25     0.069219   5.0483e-05 -2.17206e-08      44.6109 
         -25     0.081236  5.02616e-05 -4.20192e-08      44.6109 
         -25     0.094215  4.71594e-05 -6.97023e-08      44.6109 
         -25     0.108155  4.55748e-05 -1.05829e-07      44.6109 
         -25     0.123056  4.37984e-05 -1.52102e-07      44.6109 
         -25     0.138918  4.22983e-05 -2.09853e-07      44.6109 
         -25     0.155744  4.11691e-05 -2.80456e-07      44.6109 
         -25     0.173529  4.02779e-05 -3.65231e-07      44.6109 
         -25     0.192276  3.95007e-05 -4.65437e-07      44.6109 
         -25     0.211984  3.89212e-05 -5.82144e-07      44.6109 
         -25     0.232655  3.87294e-05  -7.1618e-07      44.6109 
         -25     0.254285  3.85679e-05 -8.68256e-07      44.6109 
         -25     0.276877  3.86836e-05 -1.03934e-06      44.6109 
         -25     0.300431  3.89142e-05 -1.22827e-06      44.6109 
         -25     0.324946  3.92439e-05 -1.43456e-06      44.6109 
         -25     0.350424  3.96492e-05 -1.65792e-06      44.6109 
         -25     0.376861  4.00998e-05 -1.89846e-06      44.6109 
         -25      0.40426  4.05622e-05 -2.15715e-06      44.6109 
         -25     0.432621  4.10031e-05 -2.43598e-06      44.6109 
         -25     0.461945  4.13929e-05 -2.73815e-06      44.6108 
         -25     0.492228  4.17092e-05 -3.06791e-06      44.6108 
         -25     0.523472   4.1939e-05 -3.43009e-06      44.6108 
         -25     0.555678   4.2077e-05 -3.82892e-06      44.6108 
         -25     0.588845  4.21205e-05 -4.26595e-06      44.6108 
         -25     0.622976  4.20732e-05 -4.72764e-06      44.6108 
         -25     0.658066  4.19376e-05 -5.17313e-06      44.6108 
         -25     0.694117  4.17301e-05 -5.60982e-06      44.6108 
         -25      0.73113  4.14966e-05  -6.0445e-06      44.6108 
         -25     0.769107  4.12812e-05 -6.48145e-06      44.6107 
         -25     0.808042  4.11252e-05 -6.92244e-06      44.6107 
         -25     0.847939  4.10656e-05 -7.36717e-06      44.6107 
         -25     0.888797  4.11342e-05 -7.81345e-06      44.6107 
         -25      0.93062  4.13566e-05 -8.25784e-06      44.6107 
         -25       0.9734  4.17513e-05 -8.69602e-06      44.6106 
         -25      1.01714  4.23296e-05 -9.12375e-06      44.6106 
         -25      1.06185  4.30948e-05 -9.53723e-06      44.6106 
         -25      1.10751  4.40427e-05 -9.93377e-06      44.6105 
         -25      1.15414  4.51622e-05 -1.03121e-05      44.6105 
         -25      1.20173  4.64361e-05 -1.06721e-05      44.6105 
         -25      1.25028  4.78435e-05 -1.10149e-05      44.6105 
         -25      1.29979  4.93622e-05 -1.13408e-05      44.6104 
         -25      1.35026   5.0972e-05 -1.16479e-05      44.6104 
         -25       1.4017  5.26591e-05 -1.19279e-05      44.6103 
         -25      1.45409  5.44219e-05 -1.21618e-05      44.6103 
         -25      1.50745  5.62865e-05 -1.23108e-05      44.6102 
         -25      1.56176  5.84906e-05 -1.24039e-05      44.6102 
         -25      1.61705  6.05111e-05 -1.25965e-05      44.6101 
         -25      1.67329  6.24425e-05 -1.28277e-05      44.6101 
         -25      1.73049  6.43534e-05 -1.30492e-05        44.61 
         -25      1.78865  6.62855e-05 -1.32258e-05        44.61 
         -25      1.84778  6.82553e-05 -1.33353e-05      44.6099 
         -25      1.90786  7.02551e-05 -1.33676e-05      44.6098 
         -25      1.96891  7.22565e-05 -1.33247e-05      44.6098 
         -25      2.03092   7.4213e-05 -1.32185e-05      44.6097 
         -25      2.09389  7.60638e-05 -1.30704e-05      44.6096 
         -25      2.15782  7.77378e-05 -1.29089e-05      44.6096 
         -25      2.22272  7.91596e-05 -1.27679e-05      44.6095 
         -25      2.28857  8.02536e-05 -1.26843e-05      44.6094 
         -25      2.35539  8.09504e-05 -1.26958e-05      44.6093 
         -25      2.42317   8.1192e-05  -1.2838e-05      44.6092 
         -25      2.49191  8.09376e-05 -1.31423e-05      44.6091 
         -25      2.56161  8.01687e-05  -1.3633e-05       44.609 
         -25      2.63226  7.88934e-05  -1.4325e-05      44.6089 
         -25      2.70389    7.715e-05 -1.52221e-05      44.6088 
         -25      2.77648  7.50099e-05 -1.63148e-05      44.6087 
         -25      2.85002  7.25763e-05 -1.75797e-05      44.6086 
         -25      2.92453  6.99833e-05 -1.89796e-05      44.6084 
         -25            3  6.73902e-05 -2.04641e-05      44.6083 
           0            0            0            0      43.0637 
           0      0.00048  1.26705e-05  -1.0195e-05      43.0637 
           0     0.001922  4.57754e-05 -3.66446e-05       43.064 
           0     0.004326  8.68303e-05 -6.87773e-05      43.0643 
           0      0.00769  0.000121841 -9.46119e-05      43.0648 
           0     0.012017  0.000141917 -0.000106389      43.0653 
           0     0.017304  0.000146615 -0.000103771       43.066 
           0     0.023553  0.000142125 -9.29303e-05      43.0666 
           0     0.030763  0.000134912 -8.16838e-05      43.0672 
           0     0.038936  0.000125499 -7.38899e-05      43.0679 
           0     0.048069  0.000109083 -6.80203e-05      43.0685 
           0     0.058163  8.63724e-05 -6.28259e-05      43.0692 
           0     0.069219  7.41193e-05 -6.35149e-05      43.0699 
           0     0.081236  7.26471e-05 -5.93437e-05      43.0706 
           0     0.094215  5.72303e-05 -5.22454e-05      43.0713 
           0     0.108155  4.83664e-05 -5.10303e-05       43.072 
           0     0.123056  4.08683e-05 -4.87999e-05      43.0728 
           0     0.138918  3.42595e-05 -4.61178e-05      43.0735 
           0     0.155744  2.82428e-05 -4.34708e-05      43.0743 
           0     0.173529  2.27646e-05 -4.11954e-05       43.075 
           0     0.192276  1.79878e-05 -3.94126e-05      43.0758 
           0     0.211984   1.4147e-05 -3.79822e-05      43.0766 
           0     0.232655  1.12201e-05 -3.64667e-05      43.0774 
           0     0.254285  8.47599e-06 -3.46028e-05      43.0782 
           0     0.276877  6.32222e-06 -3.33995e-05       43.079 
           0     0.300431  4.62337e-06 -3.21573e-05      43.0798 
           0     0.324946  3.25962e-06 -3.10137e-05      43.0806 
           0     0.350424  2.16453e-06 -2.99754e-05      43.0814 
           0     0.376861  1.27716e-06 -2.90259e-05      43.0822 
           0      0.40426  5.46407e-07 -2.81583e-05       43.083 
           0     0.432621 -7.66653e-08 -2.73697e-05      43.0838 
           0     0.461945 -6.24672e-07  -2.6648e-05      43.0846 
           0     0.492228 -1.11413e-06 -2.59889e-05      43.0854 
           0     0.523472   -1.557e-06 -2.53949e-05      43.0862 
           0     0.555678 -1.95022e-06 -2.48572e-05      43.0871 
           0     0.588845 -2.28324e-06 -2.43666e-05      43.0879 
           0     0.622976 -2.53937e-06 -2.39181e-05      43.0887 
           0     0.658066 -2.69638e-06 -2.35133e-05      43.0895 
           0     0.694117  -2.7245e-06 -2.31338e-05      43.0903 
           0      0.73113 -2.58464e-06 -2.27928e-05      43.0911 
           0     0.769107 -2.26041e-06 -2.24862e-05      43.0919 
           0     0.808042 -1.74956e-06 -2.21909e-05      43.0927 
           0     0.847939  -9.9084e-07 -2.19256e-05      43.0935 
           0     0.888797 -1.51194e-08 -2.16663e-05      43.0943 
           0      0.93062  1.17876e-06 -2.14218e-05      43.0951 
           0       0.9734  2.58776e-06 -2.11964e-05      43.0959 
           0      1.01714  4.20137e-06 -2.09877e-05      43.0966 
           0      1.06185  5.99937e-06 -2.07889e-05      43.0974 
           0      1.10751  7.95241e-06 -2.05928e-05      43.0982 
           0      1.15414  1.00248e-05    -2.04e-05       43.099 
           0      1.20173  1.21804e-05 -2.02332e-05      43.0997 
           0      1.25028  1.44047e-05 -2.00428e-05      43.1005 
           0      1.29979  1.66992e-05 -1.98616e-05      43.1012 
           0      1.35026  1.90393e-05  -1.9686e-05       43.102 
           0       1.4017  2.14063e-05  -1.9513e-05      43.1027 
           0      1.45409  2.37901e-05 -1.93482e-05      43.1034 
           0      1.50745  2.61887e-05 -1.91928e-05      43.1042 
           0      1.56176  2.86055e-05 -1.90188e-05      43.1049 
           0      1.61705  3.10451e-05 -1.88071e-05      43.1056 
           0      1.67329  3.34791e-05 -1.86622e-05      43.1063 
           0      1.73049  3.58831e-05 -1.84614e-05       43.107 
           0      1.78865  3.82432e-05 -1.82371e-05      43.1077 
           0      1.84778  4.05388e-05 -1.80127e-05      43.1084 
           0      1.90786  4.27424e-05 -1.78042e-05      43.1091 
           0      1.96891   4.4823e-05 -1.76206e-05      43.1097 
           0      2.03092  4.67494e-05 -1.74599e-05      43.1104 
           0      2.09389  4.85009e-05 -1.73026e-05       43.111 
           0      2.15782  5.00636e-05 -1.71661e-05      43.1117 
           0      2.22272  5.14552e-05 -1.69996e-05      43.1123 
           0      2.28857  5.27447e-05  -1.6756e-05      43.1129 
           0      2.35539  5.40013e-05 -1.64323e-05      43.1135 
           0      2.42317  5.52852e-05 -1.60548e-05      43.1142 
           0      2.49191  5.66416e-05 -1.56527e-05      43.1148 
           0      2.56161  5.81004e-05 -1.52141e-05      43.1153 
           0      2.63226  5.96802e-05 -1.46238e-05      43.1159 
           0      2.70389  6.13836e-05 -1.38337e-05      43.1165 
           0      2.77648  6.31767e-05 -1.32297e-05      43.1171 
           0      2.85002  6.50633e-05 -1.24047e-05      43.1176 
           0      2.92453  6.69823e-05 -1.14968e-05      43.1182 
           0            3   6.8856e-05 -1.05949e-05      43.1187 
          20            0            0            0      42.1368 
          20      0.00048  3.92034e-06  4.07779e-10      42.1368 
          20     0.001922  1.40401e-05  1.77292e-09      42.1368 
          20     0.004326  2.62089e-05  4.53603e-09      42.1368 
          20      0.00769  3.58508e-05  9.47381e-09      42.1368 
          20     0.012017  4.02295e-05  1.77144e-08      42.1368 
          20     0.017304  3.95898e-05  3.06321e-08      42.1368 
          20     0.023553  3.64816e-05  4.96574e-08      42.1368 
          20     0.030763   3.3459e-05  7.59546e-08      42.1368 
          20     0.038936   3.0735e-05  1.10142e-07      42.1368 
          20     0.048069  2.61187e-05  1.52106e-07      42.1368 
          20     0.058163  1.86008e-05  2.01103e-07      42.1368 
          20     0.069219  1.24755e-05  2.55836e-07      42.1368 
          20     0.081236  8.41225e-06  3.13765e-07      42.1368 
          20     0.094215  2.11919e-06  3.72256e-07      42.1368 
          20     0.108155 -2.88965e-06  4.28151e-07      42.1368 
          20     0.123056 -7.88414e-06  4.77673e-07      42.1368 
          20     0.138918 -1.24431e-05  5.17109e-07      42.1368 
          20     0.155744 -1.64515e-05    5.428e-07      42.1368 
          20     0.173529 -1.99861e-05   5.5141e-07      42.1368 
          20     0.192276 -2.31342e-05  5.40198e-07      42.1368 
          20     0.211984 -2.58339e-05  5.07178e-07      42.1368 
          20     0.232655 -2.79513e-05  4.51121e-07      42.1368 
          20     0.254285 -2.97876e-05  3.71288e-07      42.1368 
          20     0.276877 -3.11758e-05  2.69097e-07      42.1368 
          20     0.300431 -3.22684e-05  1.46315e-07      42.1368 
          20     0.324946 -3.30976e-05   4.7447e-09      42.1368 
          20     0.350424 -3.36952e-05 -1.52644e-07      42.1368 
          20     0.376861 -3.40902e-05 -3.21955e-07      42.1368 
          20      0.40426 -3.43074e-05 -4.98877e-07      42.1368 
          20     0.432621 -3.43651e-05 -6.79115e-07      42.1368 
          20     0.461945 -3.42749e-05 -8.58909e-07      42.1367 
          20     0.492228 -3.40425e-05 -1.03535e-06      42.1367 
          20     0.523472 -3.36693e-05 -1.20647e-06      42.1367 
          20     0.555678 -3.31564e-05 -1.37065e-06      42.1367 
          20     0.588845 -3.25109e-05 -1.52514e-06      42.1367 
          20     0.622976 -3.17234e-05 -1.66506e-06      42.1367 
          20     0.658066 -3.08248e-05 -1.80291e-06      42.1367 
          20     0.694117 -2.98174e-05 -1.93861e-06      42.1367 
          20      0.73113 -2.86388e-05 -2.06692e-06      42.1367 
          20     0.769107 -2.72346e-05 -2.18381e-06      42.1367 
          20     0.808042 -2.55609e-05  -2.2863e-06      42.1367 
          20     0.847939 -2.35851e-05 -2.37247e-06      42.1367 
          20     0.888797 -2.12888e-05 -2.44124e-06      42.1366 
          20      0.93062 -1.86674e-05 -2.49216e-06      42.1366 
          20       0.9734 -1.57325e-05 -2.52516e-06      42.1366 
          20      1.01714 -1.25101e-05 -2.54029e-06      42.1366 
          20      1.06185 -9.04074e-06 -2.53748e-06      42.1366 
          20      1.10751 -5.37695e-06 -2.51638e-06      42.1366 
          20      1.15414 -1.58039e-06 -2.47635e-06      42.1366 
          20      1.20173  2.28175e-06 -2.41659e-06      42.1365 
          20      1.25028  6.14441e-06 -2.33665e-06      42.1365 
          20      1.29979  9.95155e-06 -2.23725e-06      42.1365 
          20      1.35026  1.36667e-05 -2.12174e-06      42.1365 
          20       1.4017  1.72837e-05 -1.99816e-06      42.1364 
          20      1.45409  2.08443e-05 -1.88218e-06      42.1364 
          20      1.50745  2.44658e-05 -1.79702e-06      42.1364 
          20      1.56176  2.85566e-05 -1.57841e-06      42.1364 
          20      1.61705  3.23346e-05 -1.42362e-06      42.1363 
          20      1.67329  3.59163e-05 -1.29823e-06      42.1363 
          20      1.73049  3.93926e-05 -1.17506e-06      42.1363 
          20      1.78865  4.28265e-05 -1.03432e-06      42.1362 
          20      1.84778  4.62546e-05 -8.63521e-07      42.1362 
          20      1.90786  4.96871e-05 -6.57241e-07      42.1362 
          20      1.96891  5.31114e-05 -4.16599e-07      42.1361 
          20      2.03092  5.64936e-05 -1.48678e-07      42.1361 
          20      2.09389  5.97819e-05  1.34341e-07       42.136 
          20      2.15782  6.29099e-05  4.16061e-07       42.136 
          20      2.22272  6.58024e-05   6.7719e-07       42.136 
          20      2.28857  6.83791e-05  8.96691e-07      42.1359 
          20      2.35539  7.05607e-05  1.05325e-06      42.1359 
          20      2.42317   7.2274e-05  1.12673e-06      42.1358 
          20      2.49191  7.34573e-05  1.09966e-06      42.1357 
          20      2.56161  7.40667e-05  9.58802e-07      42.1357 
          20      2.63226  7.40808e-05  6.96485e-07      42.1356 
          20      2.70389  7.35046e-05  3.11868e-07      42.1356 
          20      2.77648  7.23739e-05 -1.87897e-07      42.1355 
          20      2.85002  7.07565e-05 -7.87184e-07      42.1354 
          20      2.92453  6.87527e-05 -1.46154e-06      42.1354 
          20            3  6.64928e-05 -2.17809e-06      42.1353 
          40            0            0            0      41.1648 
          40      0.00048  3.71482e-06   1.1025e-10      41.1648 
          40     0.001922  1.33478e-05  1.26081e-10      41.1648 
          40     0.004326  2.50793e-05 -8.80519e-10      41.1648 
          40      0.00769  3.47092e-05 -4.39727e-09      41.1648 
          40     0.012017  3.97538e-05 -1.24157e-08      41.1648 
          40     0.017304  4.04954e-05 -2.73621e-08      41.1648 
          40     0.023553  3.93534e-05 -5.20813e-08      41.1648 
          40     0.030763  3.87447e-05 -8.97943e-08      41.1648 
          40     0.038936  3.89063e-05 -1.44081e-07      41.1648 
          40     0.048069  3.78295e-05  -2.1873e-07      41.1648 
          40     0.058163  3.45806e-05 -3.17608e-07      41.1648 
          40     0.069219  3.31172e-05 -4.44467e-07      41.1648 
          40     0.081236  3.40158e-05 -6.03011e-07      41.1648 
          40     0.094215  3.32374e-05 -7.96435e-07      41.1648 
          40     0.108155  3.39579e-05 -1.02745e-06      41.1648 
          40     0.123056  3.49109e-05 -1.29831e-06      41.1648 
          40     0.138918    3.639e-05 -1.61058e-06      41.1648 
          40     0.155744   3.8406e-05 -1.96522e-06      41.1648 
          40     0.173529   4.0794e-05  -2.3624e-06      41.1648 
          40     0.192276  4.33909e-05 -2.80182e-06      41.1648 
          40     0.211984  4.61813e-05 -3.28257e-06      41.1648 
          40     0.232655  4.92298e-05 -3.80344e-06      41.1648 
          40     0.254285  5.22096e-05 -4.36281e-06      41.1648 
          40     0.276877  5.52379e-05 -4.95901e-06      41.1648 
          40     0.300431  5.81449e-05 -5.59038e-06      41.1648 
          40     0.324946  6.08794e-05 -6.25547e-06      41.1648 
          40     0.350424  6.33906e-05 -6.95304e-06      41.1648 
          40     0.376861  6.56293e-05 -7.68195e-06      41.1648 
          40      0.40426  6.75506e-05 -8.44156e-06      41.1648 
          40     0.432621  6.91149e-05  -9.2314e-06      41.1648 
          40     0.461945  7.02897e-05 -1.00513e-05      41.1648 
          40     0.492228  7.10508e-05 -1.09012e-05      41.1648 
          40     0.523472  7.13839e-05 -1.17808e-05      41.1648 
          40     0.555678  7.12844e-05 -1.26898e-05      41.1648 
          40     0.588845  7.07562e-05 -1.36267e-05      41.1648 
          40     0.622976  6.98331e-05 -1.45893e-05      41.1648 
          40     0.658066  6.85332e-05 -1.55769e-05      41.1648 
          40     0.694117  6.68955e-05 -1.65857e-05      41.1648 
          40      0.73113  6.50139e-05 -1.76102e-05      41.1648 
          40     0.769107   6.2983e-05 -1.86445e-05      41.1648 
          40     0.808042   6.0896e-05 -1.96825e-05      41.1648 
          40     0.847939  5.88403e-05  -2.0718e-05      41.1648 
          40     0.888797  5.68954e-05 -2.17448e-05      41.1648 
          40      0.93062  5.51294e-05 -2.27571e-05      41.1648 
          40       0.9734  5.35967e-05 -2.37488e-05      41.1647 
          40      1.01714   5.2335e-05  -2.4715e-05      41.1647 
          40      1.06185  5.13637e-05 -2.56507e-05      41.1647 
          40      1.10751  5.06832e-05 -2.65519e-05      41.1647 
          40      1.15414   5.0275e-05 -2.74155e-05      41.1647 
          40      1.20173  5.01035e-05 -2.82388e-05      41.1647 
          40      1.25028  5.01202e-05 -2.90201e-05      41.1647 
          40      1.29979  5.02698e-05 -2.97587e-05      41.1647 
          40      1.35026  5.04996e-05 -3.04542e-05      41.1647 
          40       1.4017   5.0773e-05 -3.11065e-05      41.1647 
          40      1.45409  5.10868e-05 -3.17156e-05      41.1647 
          40      1.50745  5.14822e-05  -3.2279e-05      41.1647 
          40      1.56176  5.13519e-05 -3.27288e-05      41.1647 
          40      1.61705  5.12007e-05 -3.31648e-05      41.1646 
          40      1.67329  5.09775e-05 -3.35709e-05      41.1646 
          40      1.73049  5.06464e-05 -3.39331e-05      41.1646 
          40      1.78865  5.01855e-05 -3.42393e-05      41.1646 
          40      1.84778  4.95871e-05 -3.44794e-05      41.1646 
          40      1.90786  4.88563e-05  -3.4646e-05      41.1646 
          40      1.96891  4.80099e-05  -3.4734e-05      41.1646 
          40      2.03092  4.70745e-05 -3.47409e-05      41.1646 
          40      2.09389  4.60845e-05 -3.46669e-05      41.1645 
          40      2.15782    4.508e-05  -3.4515e-05      41.1645 
          40      2.22272  4.41039e-05 -3.42906e-05      41.1645 
          40      2.28857  4.31992e-05 -3.40017e-05      41.1645 
          40      2.35539   4.2406e-05 -3.36588e-05      41.1645 
          40      2.42317  4.17589e-05 -3.32744e-05      41.1645 
          40      2.49191  4.12837e-05 -3.28629e-05      41.1644 
          40      2.56161  4.09949e-05 -3.24401e-05      41.1644 
          40      2.63226   4.0894e-05 -3.20229e-05      41.1644 
          40      2.70389  4.09671e-05 -3.16285e-05      41.1644 
          40      2.77648  4.11846e-05 -3.12742e-05      41.1643 
          40      2.85002  4.15016e-05 -3.09761e-05      41.1643 
          40      2.92453  4.18588e-05 -3.07488e-05      41.1643 
          40            3   4.2187e-05 -3.06041e-05      41.1643 
          60            0           -0           -0      40.2434 
          60      0.00048  3.73112e-06   8.4126e-11      40.2434 
          60     0.001922  1.34616e-05  3.71198e-10      40.2434 
          60     0.004326  2.54877e-05  9.73513e-10      40.2434 
          60      0.00769  3.57193e-05  2.10306e-09      40.2434 
          60     0.012017  4.16986e-05  4.09668e-09      40.2434 
          60     0.017304  4.36099e-05  7.41977e-09      40.2434 
          60     0.023553  4.36826e-05  1.26535e-08      40.2434 
          60     0.030763  4.41393e-05  2.04492e-08      40.2434 
          60     0.038936  4.51106e-05  3.14842e-08      40.2434 
          60     0.048069  4.45762e-05  4.64196e-08      40.2434 
          60     0.058163  4.15616e-05  6.59087e-08      40.2434 
          60     0.069219  3.98083e-05  9.05788e-08      40.2434 
          60     0.081236  3.98316e-05  1.20834e-07      40.2434 
          60     0.094215  3.77357e-05  1.57038e-07      40.2434 
          60     0.108155  3.65825e-05  1.99355e-07      40.2434 
          60     0.123056  3.51908e-05  2.47635e-07      40.2434 
          60     0.138918  3.39013e-05  3.01521e-07      40.2434 
          60     0.155744  3.28014e-05  3.60392e-07      40.2434 
          60     0.173529   3.1826e-05  4.23339e-07      40.2434 
          60     0.192276  3.09198e-05  4.89247e-07      40.2434 
          60     0.211984  3.01737e-05  5.56805e-07      40.2434 
          60     0.232655  2.97531e-05   6.2459e-07      40.2434 
          60     0.254285  2.94415e-05  6.91108e-07      40.2434 
          60     0.276877  2.94399e-05  7.54872e-07      40.2434 
          60     0.300431  2.96605e-05  8.14465e-07      40.2434 
          60     0.324946  3.01134e-05  8.68621e-07      40.2434 
          60     0.350424  3.07984e-05   9.1622e-07      40.2434 
          60     0.376861   3.1705e-05  9.56285e-07      40.2434 
          60      0.40426  3.28139e-05     9.88e-07      40.2434 
          60     0.432621  3.40994e-05  1.01067e-06      40.2434 
          60     0.461945  3.55308e-05  1.02365e-06      40.2434 
          60     0.492228  3.70754e-05  1.02634e-06      40.2434 
          60     0.523472   3.8699e-05  1.01804e-06      40.2434 
          60     0.555678   4.0365e-05  9.97903e-07      40.2434 
          60     0.588845  4.20288e-05  9.64843e-07      40.2433 
          60     0.622976  4.36282e-05  9.16409e-07      40.2433 
          60     0.658066  4.51458e-05  8.53781e-07      40.2433 
          60     0.694117  4.65348e-05  7.76304e-07      40.2433 
          60      0.73113  4.77408e-05  6.80924e-07      40.2433 
          60     0.769107  4.87289e-05  5.65883e-07      40.2433 
          60     0.808042  4.94828e-05  4.30734e-07      40.2433 
          60     0.847939  5.00054e-05  2.76204e-07      40.2433 
          60     0.888797  5.03161e-05  1.04096e-07      40.2433 
          60      0.93062  5.04487e-05 -8.29563e-08      40.2433 
          60       0.9734  5.04478e-05 -2.81674e-07      40.2433 
          60      1.01714  5.03642e-05 -4.88541e-07      40.2433 
          60      1.06185  5.02503e-05 -7.00013e-07      40.2433 
          60      1.10751  5.01552e-05 -9.12877e-07      40.2433 
          60      1.15414  5.01194e-05 -1.12447e-06      40.2433 
          60      1.20173   5.0171e-05 -1.33278e-06      40.2433 
          60      1.25028  5.03235e-05 -1.53648e-06      40.2433 
          60      1.29979  5.05748e-05 -1.73464e-06      40.2433 