Variables = x, y, u, v, p

Zone, I=2080, F=POINT
         -50            0 -2.68067e-19 -4.76068e-23     -114.471 
         -50      0.00048 -2.66224e-05 -4.81928e-09     -114.471 
         -50     0.001922 -9.33226e-05 -1.79538e-08     -114.471 
         -50     0.004326 -0.000167607 -3.61054e-08     -114.471 
         -50      0.00769 -0.000216025 -5.58538e-08     -114.471 
         -50     0.012017 -0.000223426 -7.56958e-08     -114.471 
         -50     0.017304 -0.000201326 -9.70211e-08     -114.471 
         -50     0.023553 -0.000178919 -1.23536e-07     -114.471 
         -50     0.030763 -0.000179788 -1.59141e-07     -114.471 
         -50     0.038936 -0.000200033 -2.05763e-07     -114.471 
         -50     0.048069 -0.000210508 -2.63074e-07     -114.471 
         -50     0.058163 -0.000195515 -3.31452e-07     -114.471 
         -50     0.069219 -0.000194722 -4.15328e-07     -114.471 
         -50     0.081236 -0.000210549 -5.15063e-07     -114.471 
         -50     0.094215 -0.000203864 -6.29478e-07     -114.471 
         -50     0.108155 -0.000207168 -7.62585e-07     -114.471 
         -50     0.123056 -0.000206762 -9.13509e-07     -114.471 
         -50     0.138918 -0.000206964 -1.08366e-06     -114.471 
         -50     0.155744  -0.00020851 -1.27481e-06     -114.471 
         -50     0.173529 -0.000209994 -1.48913e-06     -114.471 
         -50     0.192276 -0.000210219 -1.72962e-06     -114.471 
         -50     0.211984 -0.000210123 -2.00003e-06     -114.471 
         -50     0.232655 -0.000211726 -2.30506e-06     -114.471 
         -50     0.254285 -0.000211622 -2.64558e-06     -114.471 
         -50     0.276877 -0.000212672 -3.01704e-06     -114.471 
         -50     0.300431 -0.000213476 -3.43053e-06     -114.471 
         -50     0.324946 -0.000214236 -3.87054e-06     -114.471 
         -50     0.350424 -0.000215077 -4.32158e-06     -114.471 
         -50     0.376861 -0.000216049 -4.77045e-06     -114.471 
         -50      0.40426 -0.000217149 -5.20902e-06     -114.471 
         -50     0.432621 -0.000218337 -5.63568e-06     -114.471 
         -50     0.461945 -0.000219571 -6.05562e-06     -114.471 
         -50     0.492228 -0.000220826  -6.4778e-06     -114.471 
         -50     0.523472 -0.000222106 -6.90763e-06     -114.471 
         -50     0.555678 -0.000223423 -7.33228e-06     -114.471 
         -50     0.588845  -0.00022472 -7.69626e-06     -114.471 
         -50     0.622976 -0.000225827 -8.03738e-06      -114.47 
         -50     0.658066 -0.000226821 -8.55655e-06      -114.47 
         -50     0.694117 -0.000227645 -9.07306e-06      -114.47 
         -50      0.73113 -0.000228265 -9.56397e-06      -114.47 
         -50     0.769107 -0.000228654 -1.00169e-05      -114.47 
         -50     0.808042 -0.000228795 -1.04289e-05      -114.47 
         -50     0.847939 -0.000228678 -1.08054e-05      -114.47 
         -50     0.888797 -0.000228302 -1.11575e-05      -114.47 
         -50      0.93062 -0.000227673 -1.14995e-05      -114.47 
         -50       0.9734 -0.000226806 -1.18455e-05     -114.469 
         -50      1.01714 -0.000225719 -1.22067e-05     -114.469 
         -50      1.06185 -0.000224436 -1.25877e-05     -114.469 
         -50      1.10751 -0.000222983 -1.29847e-05     -114.469 
         -50      1.15414 -0.000221387 -1.33838e-05     -114.469 
         -50      1.20173 -0.000219672 -1.37617e-05     -114.469 
         -50      1.25028  -0.00021786 -1.40891e-05     -114.468 
         -50      1.29979 -0.000215968 -1.43374e-05     -114.468 
         -50      1.35026 -0.000214007 -1.44906e-05     -114.468 
         -50       1.4017  -0.00021198 -1.45632e-05     -114.468 
         -50      1.45409 -0.000209888 -1.46265e-05     -114.467 
         -50      1.50745  -0.00020774 -1.48456e-05     -114.467 
         -50      1.56176 -0.000205954 -1.52045e-05     -114.467 
         -50      1.61705 -0.000203951 -1.53957e-05     -114.466 
         -50      1.67329 -0.000201758 -1.54593e-05     -114.466 
         -50      1.73049 -0.000199403 -1.54299e-05     -114.466 
         -50      1.78865 -0.000196916 -1.53356e-05     -114.465 
         -50      1.84778 -0.000194329 -1.51987e-05     -114.465 
         -50      1.90786 -0.000191675 -1.50359e-05     -114.464 
         -50      1.96891 -0.000188988 -1.48585e-05     -114.464 
         -50      2.03092 -0.000186301 -1.46731e-05     -114.464 
         -50      2.09389 -0.000183649 -1.44826e-05     -114.463 
         -50      2.15782 -0.000181068 -1.42865e-05     -114.463 
         -50      2.22272  -0.00017859 -1.40826e-05     -114.462 
         -50      2.28857 -0.000176249 -1.38673e-05     -114.461 
         -50      2.35539 -0.000174076 -1.36375e-05     -114.461 
         -50      2.42317 -0.000172102 -1.33914e-05      -114.46 
         -50      2.49191 -0.000170353 -1.31294e-05      -114.46 
         -50      2.56161 -0.000168853 -1.28556e-05     -114.459 
         -50      2.63226 -0.000167622 -1.25783e-05     -114.458 
         -50      2.70389 -0.000166677 -1.23107e-05     -114.458 
         -50      2.77648 -0.000166026 -1.20714e-05     -114.457 
         -50      2.85002 -0.000165674 -1.18836e-05     -114.456 
         -50      2.92453 -0.000165617 -1.17751e-05     -114.455 
         -50            3 -0.000165844 -1.17759e-05     -114.454 
         -25            0           -0           -0     -109.863 
         -25      0.00048 -1.93157e-05 -1.85906e-09     -109.863 
         -25     0.001922 -6.76462e-05 -6.53817e-09     -109.863 
         -25     0.004326 -0.000121267 -1.16088e-08     -109.863 
         -25      0.00769 -0.000155774 -1.38567e-08     -109.863 
         -25     0.012017 -0.000160166 -1.01076e-08     -109.863 
         -25     0.017304 -0.000142951   2.2927e-09     -109.863 
         -25     0.023553 -0.000125572  2.56091e-08     -109.863 
         -25     0.030763 -0.000125372  6.23575e-08     -109.863 
         -25     0.038936 -0.000139589  1.15994e-07     -109.863 
         -25     0.048069  -0.00014699   1.9078e-07     -109.863 
         -25     0.058163 -0.000136158  2.90532e-07     -109.863 
         -25     0.069219 -0.000136136  4.17142e-07     -109.863 
         -25     0.081236 -0.000148707  5.73459e-07     -109.863 
         -25     0.094215 -0.000145243  7.62264e-07     -109.863 
         -25     0.108155  -0.00014947  9.83487e-07     -109.863 
         -25     0.123056 -0.000151312  1.23822e-06     -109.863 
         -25     0.138918 -0.000153845  1.52593e-06     -109.863 
         -25     0.155744 -0.000157515   1.8455e-06     -109.863 
         -25     0.173529 -0.000161195  2.19507e-06     -109.863 
         -25     0.192276 -0.000163909  2.57264e-06     -109.863 
         -25     0.211984 -0.000166246  2.97588e-06     -109.863 
         -25     0.232655 -0.000169598  3.40217e-06     -109.863 
         -25     0.254285 -0.000171398   3.8483e-06     -109.863 
         -25     0.276877 -0.000173679   4.3127e-06     -109.863 
         -25     0.300431 -0.000175372  4.79283e-06     -109.863 
         -25     0.324946 -0.000176601  5.28653e-06     -109.863 
         -25     0.350424  -0.00017744  5.79056e-06     -109.863 
         -25     0.376861 -0.000177922  6.30101e-06     -109.863 
         -25      0.40426 -0.000178048  6.81443e-06     -109.863 
         -25     0.432621 -0.000177806  7.32856e-06     -109.863 
         -25     0.461945  -0.00017719  7.84337e-06     -109.863 
         -25     0.492228 -0.000176215  8.36161e-06     -109.863 
         -25     0.523472 -0.000174922  8.88909e-06     -109.863 
         -25     0.555678 -0.000173362   9.4336e-06     -109.863 
         -25     0.588845  -0.00017154  1.00022e-05     -109.863 
         -25     0.622976 -0.000169426  1.05905e-05     -109.863 
         -25     0.658066 -0.000167141  1.11882e-05     -109.863 
         -25     0.694117 -0.000164667  1.17935e-05     -109.863 
         -25      0.73113 -0.000162076  1.23978e-05     -109.862 
         -25     0.769107 -0.000159435  1.29947e-05     -109.862 
         -25     0.808042  -0.00015681  1.35793e-05     -109.862 
         -25     0.847939 -0.000154256  1.41489e-05     -109.862 
         -25     0.888797 -0.000151823  1.47013e-05     -109.862 
         -25      0.93062  -0.00014955  1.52355e-05     -109.862 
         -25       0.9734 -0.000147469  1.57502e-05     -109.862 
         -25      1.01714 -0.000145599   1.6244e-05     -109.862 
         -25      1.06185 -0.000143952  1.67144e-05     -109.862 
         -25      1.10751 -0.000142527  1.71577e-05     -109.862 
         -25      1.15414 -0.000141318  1.75689e-05     -109.862 
         -25      1.20173 -0.000140311   1.7942e-05     -109.862 
         -25      1.25028 -0.000139489  1.82714e-05     -109.862 
         -25      1.29979 -0.000138832  1.85535e-05     -109.862 
         -25      1.35026 -0.000138324  1.87897e-05     -109.862 
         -25       1.4017 -0.000137958  1.89911e-05     -109.861 
         -25      1.45409 -0.000137738  1.91845e-05     -109.861 
         -25      1.50745 -0.000137675  1.94126e-05     -109.861 
         -25      1.56176 -0.000137326  1.93218e-05     -109.861 
         -25      1.61705  -0.00013718  1.93426e-05     -109.861 
         -25      1.67329 -0.000137117  1.94292e-05     -109.861 
         -25      1.73049 -0.000137039   1.9541e-05     -109.861 
         -25      1.78865 -0.000136871  1.96428e-05     -109.861 
         -25      1.84778 -0.000136563  1.97051e-05      -109.86 
         -25      1.90786 -0.000136086  1.97048e-05      -109.86 
         -25      1.96891 -0.000135432   1.9625e-05      -109.86 
         -25      2.03092 -0.000134611  1.94549e-05      -109.86 
         -25      2.09389 -0.000133651  1.91902e-05      -109.86 
         -25      2.15782 -0.000132591  1.88323e-05      -109.86 
         -25      2.22272 -0.000131483  1.83885e-05     -109.859 
         -25      2.28857  -0.00013038   1.7871e-05     -109.859 
         -25      2.35539  -0.00012934  1.72965e-05     -109.859 
         -25      2.42317 -0.000128417  1.66853e-05     -109.859 
         -25      2.49191 -0.000127659  1.60607e-05     -109.858 
         -25      2.56161   -0.0001271  1.54476e-05     -109.858 
         -25      2.63226 -0.000126761  1.48716e-05     -109.858 
         -25      2.70389 -0.000126647  1.43578e-05     -109.858 
         -25      2.77648 -0.000126739  1.39296e-05     -109.857 
         -25      2.85002 -0.000127001   1.3607e-05     -109.857 
         -25      2.92453 -0.000127376   1.3406e-05     -109.857 
         -25            3 -0.000127793  1.33368e-05     -109.856 
           0            0            0            0     -106.049 
           0      0.00048 -5.34547e-05  4.24361e-05      -106.05 
           0     0.001922 -0.000185345  0.000147756      -106.05 
           0     0.004326 -0.000326047  0.000261626     -106.051 
           0      0.00769 -0.000405737   0.00032786     -106.053 
           0     0.012017 -0.000396523  0.000320557     -106.054 
           0     0.017304 -0.000329191  0.000258569     -106.055 
           0     0.023553 -0.000270232  0.000191394     -106.057 
           0     0.030763 -0.000267823  0.000161339     -106.058 
           0     0.038936 -0.000304343  0.000167217      -106.06 
           0     0.048069 -0.000308225  0.000166376     -106.062 
           0     0.058163   -0.0002506  0.000134874     -106.063 
           0     0.069219  -0.00023977  0.000131387     -106.065 
           0     0.081236  -0.00027203  0.000139813     -106.067 
           0     0.094215 -0.000239408  0.000117735     -106.068 
           0     0.108155 -0.000234657   0.00011711      -106.07 
           0     0.123056 -0.000222379  0.000109732     -106.072 
           0     0.138918 -0.000212499  0.000103145     -106.074 
           0     0.155744 -0.000205984  9.90894e-05     -106.076 
           0     0.173529 -0.000198909  9.56854e-05     -106.078 
           0     0.192276 -0.000188668  9.10496e-05      -106.08 
           0     0.211984 -0.000178649  8.63415e-05     -106.082 
           0     0.232655 -0.000174298  8.41802e-05     -106.083 
           0     0.254285 -0.000164979  7.93493e-05     -106.085 
           0     0.276877 -0.000158709  7.64128e-05     -106.087 
           0     0.300431 -0.000152429  7.31364e-05     -106.089 
           0     0.324946 -0.000146633  6.99414e-05     -106.091 
           0     0.350424 -0.000141426   6.6881e-05     -106.093 
           0     0.376861 -0.000136784  6.38975e-05     -106.095 
           0      0.40426 -0.000132683  6.09906e-05     -106.097 
           0     0.432621 -0.000129124  5.81675e-05     -106.099 
           0     0.461945 -0.000126087  5.53951e-05     -106.101 
           0     0.492228 -0.000123567  5.26665e-05     -106.103 
           0     0.523472 -0.000121528  5.00013e-05     -106.105 
           0     0.555678 -0.000119944  4.73886e-05     -106.107 
           0     0.588845 -0.000118777  4.48191e-05     -106.109 
           0     0.622976 -0.000117982  4.22867e-05     -106.111 
           0     0.658066 -0.000117503  3.97869e-05     -106.113 
           0     0.694117 -0.000117307  3.73383e-05     -106.115 
           0      0.73113 -0.000117316  3.49235e-05     -106.117 
           0     0.769107 -0.000117439  3.25522e-05     -106.119 
           0     0.808042 -0.000117588  3.02443e-05     -106.121 
           0     0.847939 -0.000117748  2.79445e-05     -106.123 
           0     0.888797 -0.000117845  2.57116e-05     -106.125 
           0      0.93062 -0.000117826  2.35419e-05     -106.127 
           0       0.9734 -0.000117656  2.14309e-05     -106.129 
           0      1.01714  -0.00011732  1.93751e-05     -106.131 
           0      1.06185 -0.000116822  1.73738e-05     -106.133 
           0      1.10751 -0.000116186  1.54303e-05     -106.135 
           0      1.15414 -0.000115451  1.35523e-05     -106.137 
           0      1.20173 -0.000114665  1.17539e-05     -106.139 
           0      1.25028 -0.000113867  1.00039e-05      -106.14 
           0      1.29979 -0.000113141  8.34179e-06     -106.142 
           0      1.35026 -0.000112522  6.76032e-06     -106.144 
           0       1.4017 -0.000112013  5.23562e-06     -106.146 
           0      1.45409 -0.000111594  3.74819e-06     -106.148 
           0      1.50745 -0.000111232  2.30766e-06      -106.15 
           0      1.56176 -0.000110897  9.88902e-07     -106.151 
           0      1.61705 -0.000110588 -1.79956e-07     -106.153 
           0      1.67329 -0.000110318 -1.41836e-06     -106.155 
           0      1.73049  -0.00011004 -2.47736e-06     -106.156 
           0      1.78865 -0.000109738 -3.43105e-06     -106.158 
           0      1.84778 -0.000109417 -4.31845e-06      -106.16 
           0      1.90786   -0.0001091  -5.1514e-06     -106.162 
           0      1.96891 -0.000108817 -5.92722e-06     -106.163 
           0      2.03092 -0.000108601 -6.64535e-06     -106.165 
           0      2.09389  -0.00010848 -7.31616e-06     -106.166 
           0      2.15782 -0.000108515 -7.88668e-06     -106.168 
           0      2.22272 -0.000108734 -8.41574e-06      -106.17 
           0      2.28857 -0.000109118 -8.88952e-06     -106.171 
           0      2.35539 -0.000109611 -9.29377e-06     -106.173 
           0      2.42317 -0.000110138 -9.61885e-06     -106.174 
           0      2.49191 -0.000110624 -9.85999e-06     -106.176 
           0      2.56161 -0.000111013 -1.00114e-05     -106.177 
           0      2.63226 -0.000111295 -1.00516e-05     -106.179 
           0      2.70389 -0.000111488 -9.99373e-06      -106.18 
           0      2.77648 -0.000111541 -9.98721e-06     -106.181 
           0      2.85002 -0.000111583 -9.92426e-06     -106.183 
           0      2.92453 -0.000111664 -9.85612e-06     -106.184 
           0            3 -0.000111822  -9.8346e-06     -106.185 
          20            0            0            0     -103.764 
          20      0.00048 -1.56861e-05 -1.16367e-09     -103.764 
          20     0.001922 -5.51784e-05  -4.8763e-09     -103.764 
          20     0.004326 -9.97909e-05 -1.19512e-08     -103.764 
          20      0.00769 -0.000130251 -2.41934e-08     -103.764 
          20     0.012017 -0.000137745 -4.48493e-08     -103.764 
          20     0.017304 -0.000128714 -7.87523e-08     -103.764 
          20     0.023553 -0.000119715 -1.32159e-07     -103.764 
          20     0.030763 -0.000124073 -2.12129e-07     -103.764 
          20     0.038936  -0.00013936 -3.25942e-07     -103.764 
          20     0.048069  -0.00014868 -4.80756e-07     -103.764 
          20     0.058163 -0.000142868 -6.84168e-07     -103.764 
          20     0.069219 -0.000144517 -9.44691e-07     -103.764 
          20     0.081236 -0.000154897 -1.26962e-06     -103.764 
          20     0.094215 -0.000151504 -1.66539e-06     -103.764 
          20     0.108155  -0.00015293  -2.1388e-06     -103.764 
          20     0.123056 -0.000151329 -2.69451e-06     -103.764 
          20     0.138918  -0.00014922 -3.33649e-06     -103.764 
          20     0.155744 -0.000147103 -4.06751e-06     -103.764 
          20     0.173529 -0.000144282 -4.88862e-06     -103.764 
          20     0.192276 -0.000140201 -5.79987e-06     -103.764 
          20     0.211984  -0.00013554 -6.79993e-06     -103.764 
          20     0.232655 -0.000131606 -7.88671e-06     -103.764 
          20     0.254285  -0.00012659 -9.05702e-06     -103.764 
          20     0.276877 -0.000122265 -1.03066e-05     -103.764 
          20     0.300431 -0.000117943 -1.16317e-05     -103.764 
          20     0.324946 -0.000113832 -1.30273e-05     -103.764 
          20     0.350424 -0.000110068 -1.44882e-05     -103.764 
          20     0.376861 -0.000106718 -1.60086e-05     -103.764 
          20      0.40426 -0.000103793 -1.75832e-05     -103.764 
          20     0.432621 -0.000101259 -1.92061e-05     -103.764 
          20     0.461945 -9.90663e-05 -2.08718e-05     -103.764 
          20     0.492228 -9.71668e-05 -2.25745e-05     -103.764 
          20     0.523472 -9.55316e-05 -2.43085e-05     -103.764 
          20     0.555678 -9.41487e-05 -2.60688e-05     -103.764 
          20     0.588845 -9.29873e-05 -2.78504e-05     -103.764 
          20     0.622976 -9.20063e-05 -2.96527e-05     -103.764 
          20     0.658066 -9.12247e-05 -3.14698e-05     -103.764 
          20     0.694117 -9.06774e-05 -3.32995e-05     -103.764 
          20      0.73113 -9.04772e-05 -3.51442e-05     -103.764 
          20     0.769107 -9.06846e-05 -3.70035e-05     -103.764 
          20     0.808042 -9.13105e-05 -3.88733e-05     -103.764 
          20     0.847939 -9.23207e-05 -4.07477e-05     -103.764 
          20     0.888797 -9.36443e-05 -4.26178e-05     -103.764 
          20      0.93062 -9.51836e-05 -4.44736e-05     -103.764 
          20       0.9734 -9.68268e-05 -4.63033e-05     -103.764 
          20      1.01714 -9.84619e-05 -4.80954e-05     -103.764 
          20      1.06185 -9.99901e-05 -4.98385e-05     -103.764 
          20      1.10751 -0.000101339 -5.15226e-05     -103.764 
          20      1.15414 -0.000102469 -5.31392e-05     -103.764 
          20      1.20173 -0.000103382 -5.46813e-05     -103.764 
          20      1.25028  -0.00010411 -5.61437e-05     -103.763 
          20      1.29979 -0.000104699 -5.75216e-05     -103.763 
          20      1.35026 -0.000105174 -5.88087e-05     -103.763 
          20       1.4017 -0.000105483 -5.99936e-05     -103.763 
          20      1.45409 -0.000105405 -6.10556e-05     -103.763 
          20      1.50745 -0.000104468 -6.19623e-05     -103.763 
          20      1.56176 -0.000104423 -6.29027e-05     -103.763 
          20      1.61705 -0.000104306 -6.36719e-05     -103.763 
          20      1.67329 -0.000104154 -6.42853e-05     -103.763 
          20      1.73049 -0.000103996 -6.47572e-05     -103.763 
          20      1.78865 -0.000103861 -6.51007e-05     -103.763 
          20      1.84778 -0.000103773 -6.53269e-05     -103.763 
          20      1.90786 -0.000103748 -6.54457e-05     -103.763 
          20      1.96891 -0.000103803 -6.54647e-05     -103.763 
          20      2.03092 -0.000103945 -6.53901e-05     -103.762 
          20      2.09389 -0.000104178 -6.52258e-05     -103.762 
          20      2.15782 -0.000104501 -6.49741e-05     -103.762 
          20      2.22272 -0.000104907 -6.46355e-05     -103.762 
          20      2.28857 -0.000105386 -6.42089e-05     -103.762 
          20      2.35539  -0.00010592 -6.36915e-05     -103.762 
          20      2.42317  -0.00010649 -6.30795e-05     -103.762 
          20      2.49191 -0.000107073 -6.23683e-05     -103.762 
          20      2.56161 -0.000107643 -6.15526e-05     -103.761 
          20      2.63226 -0.000108172 -6.06272e-05     -103.761 
          20      2.70389 -0.000108632 -5.95869e-05     -103.761 
          20      2.77648 -0.000108995 -5.84281e-05     -103.761 
          20      2.85002 -0.000109237 -5.71483e-05     -103.761 
          20      2.92453 -0.000109336 -5.57475e-05     -103.761 
          20            3 -0.000109278 -5.42283e-05      -103.76 
          40            0            0            0     -101.367 
          40      0.00048 -1.40773e-05 -4.30673e-10     -101.367 
          40     0.001922 -4.93011e-05 -2.16036e-09     -101.367 
          40     0.004326 -8.83729e-05  -6.5358e-09     -101.367 
          40      0.00769 -0.000113469 -1.58929e-08     -101.367 
          40     0.012017 -0.000116479 -3.36339e-08     -101.367 
          40     0.017304 -0.000103453 -6.41387e-08     -101.367 
          40     0.023553 -8.98369e-05 -1.12586e-07     -101.367 
          40     0.030763 -8.80966e-05 -1.84549e-07     -101.367 
          40     0.038936 -9.61027e-05 -2.85639e-07     -101.367 
          40     0.048069 -9.83271e-05 -4.21142e-07     -101.367 
          40     0.058163 -8.64128e-05  -5.9609e-07     -101.367 
          40     0.069219 -8.14546e-05 -8.15231e-07     -101.367 
          40     0.081236 -8.47731e-05 -1.08212e-06     -101.367 
          40     0.094215 -7.56397e-05  -1.3992e-06     -101.367 
          40     0.108155 -7.14177e-05 -1.76808e-06     -101.367 
          40     0.123056 -6.49383e-05 -2.18874e-06     -101.367 
          40     0.138918 -5.86236e-05 -2.66001e-06     -101.367 
          40     0.155744 -5.29981e-05 -3.17965e-06     -101.367 
          40     0.173529  -4.7453e-05 -3.74403e-06     -101.367 
          40     0.192276 -4.14788e-05  -4.3489e-06     -101.367 
          40     0.211984 -3.56904e-05 -4.98925e-06     -101.367 
          40     0.232655 -3.12597e-05 -5.65992e-06     -101.367 
          40     0.254285 -2.64508e-05 -6.35566e-06     -101.367 
          40     0.276877 -2.28383e-05 -7.07117e-06     -101.367 
          40     0.300431 -1.97092e-05 -7.80194e-06     -101.367 
          40     0.324946 -1.71783e-05 -8.54453e-06     -101.367 
          40     0.350424 -1.53049e-05 -9.29612e-06     -101.367 
          40     0.376861 -1.40986e-05 -1.00544e-05     -101.367 
          40      0.40426 -1.35305e-05 -1.08183e-05     -101.367 
          40     0.432621 -1.35504e-05 -1.15874e-05     -101.367 
          40     0.461945 -1.41055e-05 -1.23624e-05     -101.367 
          40     0.492228 -1.51574e-05 -1.31446e-05     -101.367 
          40     0.523472 -1.66889e-05 -1.39359e-05     -101.367 
          40     0.555678 -1.86917e-05 -1.47379e-05     -101.367 
          40     0.588845 -2.11203e-05 -1.55505e-05     -101.367 
          40     0.622976 -2.38644e-05 -1.63714e-05     -101.367 
          40     0.658066 -2.69723e-05 -1.72083e-05     -101.367 
          40     0.694117 -3.03767e-05   -1.806e-05     -101.367 
          40      0.73113 -3.40131e-05  -1.8921e-05     -101.367 
          40     0.769107 -3.78155e-05  -1.9786e-05     -101.367 
          40     0.808042 -4.17177e-05 -2.06505e-05     -101.367 
          40     0.847939 -4.56565e-05 -2.15103e-05     -101.367 
          40     0.888797 -4.95728e-05 -2.23617e-05     -101.367 
          40      0.93062 -5.34144e-05 -2.32007e-05     -101.367 
          40       0.9734 -5.71364e-05 -2.40234e-05     -101.367 
          40      1.01714 -6.07051e-05 -2.48257e-05     -101.367 
          40      1.06185 -6.40972e-05 -2.56026e-05     -101.367 
          40      1.10751 -6.73018e-05 -2.63491e-05     -101.367 
          40      1.15414 -7.03191e-05 -2.70594e-05     -101.367 
          40      1.20173 -7.31591e-05 -2.77275e-05     -101.366 
          40      1.25028 -7.58395e-05  -2.8348e-05     -101.366 
          40      1.29979 -7.83804e-05  -2.8917e-05     -101.366 
          40      1.35026 -8.07973e-05 -2.94334e-05     -101.366 
          40       1.4017 -8.30913e-05 -2.99013e-05     -101.366 
          40      1.45409 -8.52364e-05 -3.03328e-05     -101.366 
          40      1.50745 -8.71947e-05 -3.07514e-05     -101.366 
          40      1.56176 -9.03346e-05 -3.10795e-05     -101.366 
          40      1.61705 -9.29476e-05 -3.13126e-05     -101.366 
          40      1.67329 -9.51483e-05 -3.14641e-05     -101.366 
          40      1.73049 -9.70374e-05  -3.1545e-05     -101.366 
          40      1.78865 -9.87005e-05 -3.15648e-05     -101.366 
          40      1.84778 -0.000100207 -3.15304e-05     -101.366 
          40      1.90786 -0.000101611  -3.1447e-05     -101.366 
          40      1.96891 -0.000102951 -3.13178e-05     -101.366 
          40      2.03092  -0.00010425 -3.11445e-05     -101.366 
          40      2.09389 -0.000105517 -3.09272e-05     -101.366 
          40      2.15782 -0.000106751 -3.06651e-05     -101.366 
          40      2.22272 -0.000107937 -3.03564e-05     -101.366 
          40      2.28857 -0.000109054 -2.99991e-05     -101.366 
          40      2.35539 -0.000110073 -2.95912e-05     -101.366 
          40      2.42317 -0.000110964 -2.91313e-05     -101.366 
          40      2.49191 -0.000111695  -2.8619e-05     -101.366 
          40      2.56161 -0.000112235 -2.80551e-05     -101.366 
          40      2.63226  -0.00011256 -2.74423e-05     -101.366 
          40      2.70389 -0.000112655 -2.67856e-05     -101.366 
          40      2.77648 -0.000112515 -2.60922e-05     -101.366 
          40      2.85002 -0.000112145 -2.53721e-05     -101.366 
          40      2.92453 -0.000111569 -2.46376e-05     -101.365 
          40            3 -0.000110821 -2.39033e-05     -101.365 
          60            0           -0           -0     -99.0935 
          60      0.00048 -1.33193e-05 -2.67516e-10     -99.0935 
          60     0.001922 -4.65458e-05 -1.46177e-09     -99.0935 
          60     0.004326  -8.3069e-05 -4.76417e-09     -99.0935 
          60      0.00769 -0.000105786 -1.21511e-08     -99.0935 
          60     0.012017 -0.000106936 -2.63785e-08     -99.0935 
          60     0.017304  -9.2387e-05 -5.08396e-08     -99.0935 
          60     0.023553 -7.70379e-05 -8.93725e-08     -99.0935 
          60     0.030763 -7.29322e-05 -1.45915e-07     -99.0935 
          60     0.038936 -7.80863e-05 -2.24216e-07     -99.0935 
          60     0.048069  -7.7639e-05 -3.27524e-07     -99.0935 
          60     0.058163 -6.36188e-05 -4.58607e-07     -99.0935 
          60     0.069219 -5.63585e-05 -6.19703e-07     -99.0935 
          60     0.081236 -5.71738e-05  -8.1197e-07     -99.0935 
          60     0.094215 -4.61748e-05 -1.03561e-06     -99.0935 
          60     0.108155  -4.0073e-05 -1.29008e-06     -99.0935 
          60     0.123056 -3.19838e-05 -1.57369e-06     -99.0935 
          60     0.138918 -2.42271e-05 -1.88403e-06     -99.0935 
          60     0.155744  -1.7285e-05 -2.21814e-06     -99.0935 
          60     0.173529 -1.05387e-05 -2.57239e-06     -99.0935 
          60     0.192276 -3.45538e-06   -2.943e-06     -99.0935 
          60     0.211984  3.42237e-06 -3.32599e-06     -99.0935 
          60     0.232655  9.01858e-06 -3.71771e-06     -99.0935 
          60     0.254285  1.50509e-05  -4.1152e-06     -99.0935 
          60     0.276877  2.00513e-05 -4.51481e-06     -99.0935 
          60     0.300431  2.47432e-05 -4.91454e-06     -99.0935 
          60     0.324946  2.90433e-05 -5.31377e-06     -99.0935 
          60     0.350424  3.29128e-05 -5.71213e-06     -99.0935 
          60     0.376861  3.63482e-05 -6.10964e-06     -99.0935 
          60      0.40426  3.93708e-05 -6.50723e-06     -99.0935 
          60     0.432621  4.20076e-05 -6.90687e-06     -99.0935 
          60     0.461945  4.42731e-05 -7.31187e-06     -99.0935 
          60     0.492228  4.61523e-05 -7.72673e-06     -99.0935 
          60     0.523472  4.75957e-05 -8.15689e-06     -99.0935 
          60     0.555678  4.85303e-05  -8.6076e-06     -99.0935 
          60     0.588845  4.89045e-05 -9.08196e-06     -99.0935 
          60     0.622976  4.87009e-05 -9.58217e-06     -99.0934 
          60     0.658066  4.77929e-05 -1.01243e-05     -99.0934 
          60     0.694117  4.61341e-05 -1.07104e-05     -99.0934 
          60      0.73113  4.36645e-05 -1.13409e-05     -99.0934 
          60     0.769107  4.03696e-05 -1.20151e-05     -99.0934 
          60     0.808042  3.62799e-05 -1.27314e-05     -99.0934 
          60     0.847939  3.14662e-05  -1.3487e-05     -99.0934 
          60     0.888797  2.60353e-05 -1.42777e-05     -99.0934 
          60      0.93062  2.01214e-05 -1.50981e-05     -99.0934 
          60       0.9734  1.38782e-05 -1.59414e-05     -99.0934 
          60      1.01714  7.46408e-06 -1.67994e-05     -99.0934 
          60      1.06185  1.03298e-06  -1.7663e-05     -99.0934 
          60      1.10751 -5.28046e-06 -1.85223e-05     -99.0934 
          60      1.15414  -1.1372e-05  -1.9367e-05     -99.0934 
          60      1.20173 -1.71759e-05 -2.01872e-05     -99.0934 
          60      1.25028 -2.26735e-05 -2.09744e-05     -99.0933 
          60      1.29979 -2.78905e-05 -2.17229e-05     -99.0933 