Variables = x, y, u, v, p

Zone, I=2080, F=POINT
         -50            0  4.78464e-19  3.57873e-23      82.7477 
         -50      0.00048  4.76555e-05  3.71898e-09      82.7477 
         -50     0.001922  0.000168582  1.49612e-08      82.7477 
         -50     0.004326  0.000307821   3.3955e-08      82.7477 
         -50      0.00769  0.000407121  6.11175e-08      82.7477 
         -50     0.012017  0.000436619  9.71589e-08      82.7477 
         -50     0.017304  0.000409818   1.4301e-07      82.7477 
         -50     0.023553  0.000371506  1.99868e-07      82.7477 
         -50     0.030763  0.000362118  2.69016e-07      82.7477 
         -50     0.038936   0.00038207  3.51687e-07      82.7477 
         -50     0.048069  0.000390897  4.48734e-07      82.7477 
         -50     0.058163  0.000362274  5.60384e-07      82.7477 
         -50     0.069219  0.000350184  6.85628e-07      82.7477 
         -50     0.081236  0.000368121  8.21008e-07      82.7477 
         -50     0.094215  0.000350246  9.65756e-07      82.7477 
         -50     0.108155  0.000347313  1.11731e-06      82.7477 
         -50     0.123056  0.000340917  1.27135e-06      82.7477 
         -50     0.138918  0.000335612  1.42402e-06      82.7476 
         -50     0.155744  0.000332278  1.57136e-06      82.7476 
         -50     0.173529  0.000329562  1.70896e-06      82.7476 
         -50     0.192276  0.000326232  1.83191e-06      82.7476 
         -50     0.211984  0.000323167  1.93475e-06      82.7476 
         -50     0.232655   0.00032237   2.0122e-06      82.7476 
         -50     0.254285   0.00032048   2.0617e-06      82.7476 
         -50     0.276877  0.000320108  2.07832e-06      82.7476 
         -50     0.300431  0.000319886  2.05709e-06      82.7475 
         -50     0.324946  0.000319912  2.00614e-06      82.7475 
         -50     0.350424  0.000320217  1.94035e-06      82.7475 
         -50     0.376861  0.000320775  1.87743e-06      82.7475 
         -50      0.40426  0.000321524  1.83272e-06      82.7474 
         -50     0.432621  0.000322391  1.81374e-06      82.7474 
         -50     0.461945  0.000323325  1.81535e-06      82.7474 
         -50     0.492228  0.000324314  1.81741e-06      82.7473 
         -50     0.523472   0.00032539   1.7875e-06      82.7473 
         -50     0.555678  0.000326607  1.69197e-06      82.7472 
         -50     0.588845  0.000327951   1.5198e-06      82.7472 
         -50     0.622976   0.00032934  1.26789e-06      82.7471 
         -50     0.658066  0.000330954  9.75024e-07      82.7471 
         -50     0.694117  0.000332711  7.28743e-07       82.747 
         -50      0.73113  0.000334595  5.31117e-07      82.7469 
         -50     0.769107  0.000336588  3.80019e-07      82.7469 
         -50     0.808042  0.000338671  2.69756e-07      82.7468 
         -50     0.847939  0.000340826  1.91894e-07      82.7467 
         -50     0.888797  0.000343034  1.36428e-07      82.7466 
         -50      0.93062  0.000345278   9.3077e-08      82.7465 
         -50       0.9734  0.000347544  5.27221e-08      82.7464 
         -50      1.01714  0.000349821  8.80386e-09      82.7463 
         -50      1.06185  0.000352104 -4.13893e-08      82.7461 
         -50      1.10751  0.000354391 -9.58203e-08       82.746 
         -50      1.15414  0.000356688 -1.47383e-07      82.7459 
         -50      1.20173  0.000359003  -1.8448e-07      82.7457 
         -50      1.25028  0.000361352  -1.9291e-07      82.7455 
         -50      1.29979  0.000363753 -1.59451e-07      82.7454 
         -50      1.35026  0.000366224 -7.76957e-08      82.7452 
         -50       1.4017  0.000368781  4.31805e-08       82.745 
         -50      1.45409   0.00037143  1.66124e-07      82.7448 
         -50      1.50745  0.000374154  2.15175e-07      82.7446 
         -50      1.56176  0.000376632  4.42805e-07      82.7444 
         -50      1.61705  0.000379169  6.24886e-07      82.7441 
         -50      1.67329   0.00038172  7.95244e-07      82.7439 
         -50      1.73049  0.000384249   9.8359e-07      82.7436 
         -50      1.78865  0.000386725  1.21507e-06      82.7433 
         -50      1.84778  0.000389126  1.50995e-06       82.743 
         -50      1.90786  0.000391435  1.88331e-06      82.7427 
         -50      1.96891  0.000393642  2.34498e-06      82.7424 
         -50      2.03092   0.00039574  2.89942e-06      82.7421 
         -50      2.09389  0.000397727  3.54585e-06      82.7417 
         -50      2.15782  0.000399605  4.27817e-06      82.7414 
         -50      2.22272  0.000401375  5.08564e-06       82.741 
         -50      2.28857   0.00040304    5.953e-06      82.7406 
         -50      2.35539  0.000404601  6.86116e-06      82.7402 
         -50      2.42317  0.000406056  7.78796e-06      82.7397 
         -50      2.49191  0.000407399  8.70865e-06      82.7393 
         -50      2.56161  0.000408621   9.5974e-06      82.7388 
         -50      2.63226  0.000409707  1.04281e-05      82.7383 
         -50      2.70389  0.000410636  1.11758e-05      82.7378 
         -50      2.77648  0.000411382  1.18178e-05      82.7372 
         -50      2.85002  0.000411916  1.23355e-05      82.7367 
         -50      2.92453  0.000412206   1.2716e-05      82.7361 
         -50            3  0.000412224  1.29538e-05      82.7355 
         -25            0           -0           -0      79.4188 
         -25      0.00048  3.50331e-05  1.45722e-09      79.4188 
         -25     0.001922  0.000124029  5.57386e-09      79.4188 
         -25     0.004326  0.000226833  1.15878e-08      79.4188 
         -25      0.00769  0.000300887  1.82945e-08      79.4188 
         -25     0.012017  0.000324386  2.41526e-08      79.4188 
         -25     0.017304  0.000307216    2.737e-08      79.4188 
         -25     0.023553  0.000282121  2.60246e-08      79.4188 
         -25     0.030763  0.000278656  1.81478e-08      79.4188 
         -25     0.038936  0.000297116  1.79103e-09      79.4188 
         -25     0.048069  0.000307897 -2.49238e-08      79.4188 
         -25     0.058163  0.000291719 -6.38308e-08      79.4188 
         -25     0.069219  0.000287973 -1.16825e-07      79.4188 
         -25     0.081236  0.000306443 -1.86161e-07      79.4188 
         -25     0.094215  0.000298922 -2.72593e-07      79.4188 
         -25     0.108155  0.000302404 -3.77113e-07      79.4188 
         -25     0.123056  0.000303337 -5.00467e-07      79.4188 
         -25     0.138918  0.000304947 -6.42926e-07      79.4188 
         -25     0.155744  0.000307785 -8.04519e-07      79.4188 
         -25     0.173529  0.000310777 -9.84884e-07      79.4188 
         -25     0.192276  0.000312955 -1.18337e-06      79.4188 
         -25     0.211984  0.000314912 -1.39896e-06      79.4188 
         -25     0.232655   0.00031808 -1.63052e-06      79.4188 
         -25     0.254285   0.00031999 -1.87693e-06      79.4188 
         -25     0.276877  0.000322552 -2.13589e-06      79.4188 
         -25     0.300431  0.000324782 -2.40567e-06      79.4188 
         -25     0.324946  0.000326781 -2.68393e-06      79.4188 
         -25     0.350424  0.000328603 -2.96943e-06      79.4188 
         -25     0.376861   0.00033026 -3.26195e-06      79.4188 
         -25      0.40426  0.000331738 -3.56231e-06      79.4187 
         -25     0.432621  0.000333005 -3.87198e-06      79.4187 
         -25     0.461945  0.000334032 -4.19259e-06      79.4187 
         -25     0.492228  0.000334807 -4.52535e-06      79.4187 
         -25     0.523472   0.00033534 -4.87043e-06      79.4187 
         -25     0.555678   0.00033565 -5.22611e-06      79.4187 
         -25     0.588845  0.000335714 -5.58815e-06      79.4186 
         -25     0.622976  0.000335466 -5.94744e-06      79.4186 
         -25     0.658066  0.000334978  -6.3106e-06      79.4186 
         -25     0.694117  0.000334207 -6.68691e-06      79.4186 
         -25      0.73113  0.000333172 -7.07668e-06      79.4186 
         -25     0.769107  0.000331899 -7.47904e-06      79.4185 
         -25     0.808042  0.000330421 -7.89188e-06      79.4185 
         -25     0.847939  0.000328771 -8.31222e-06      79.4185 
         -25     0.888797  0.000326986  -8.7362e-06      79.4184 
         -25      0.93062  0.000325101 -9.15952e-06      79.4184 
         -25       0.9734  0.000323151 -9.57747e-06      79.4183 
         -25      1.01714  0.000321167 -9.98558e-06      79.4183 
         -25      1.06185  0.000319173 -1.03797e-05      79.4182 
         -25      1.10751  0.000317188 -1.07563e-05      79.4182 
         -25      1.15414  0.000315221 -1.11128e-05      79.4181 
         -25      1.20173  0.000313274 -1.14474e-05      79.4181 
         -25      1.25028   0.00031134  -1.1759e-05       79.418 
         -25      1.29979  0.000309408 -1.20468e-05       79.418 
         -25      1.35026  0.000307465 -1.23093e-05      79.4179 
         -25       1.4017  0.000305504 -1.25429e-05      79.4178 
         -25      1.45409  0.000303533   -1.274e-05      79.4177 
         -25      1.50745  0.000301598 -1.28811e-05      79.4177 
         -25      1.56176  0.000299839 -1.28401e-05      79.4176 
         -25      1.61705  0.000297903 -1.29166e-05      79.4175 
         -25      1.67329    0.0002959 -1.30468e-05      79.4174 
         -25      1.73049  0.000293922  -1.3178e-05      79.4173 
         -25      1.78865  0.000292037 -1.32698e-05      79.4172 
         -25      1.84778  0.000290296 -1.32933e-05      79.4171 
         -25      1.90786  0.000288727 -1.32315e-05      79.4169 
         -25      1.96891   0.00028734 -1.30784e-05      79.4168 
         -25      2.03092   0.00028613 -1.28385e-05      79.4167 
         -25      2.09389  0.000285074 -1.25252e-05      79.4166 
         -25      2.15782  0.000284139 -1.21603e-05      79.4164 
         -25      2.22272  0.000283282 -1.17714e-05      79.4163 
         -25      2.28857  0.000282456 -1.13907e-05      79.4161 
         -25      2.35539  0.000281611 -1.10529e-05       79.416 
         -25      2.42317  0.000280698 -1.07927e-05      79.4158 
         -25      2.49191  0.000279679  -1.0643e-05      79.4156 
         -25      2.56161  0.000278521 -1.06322e-05      79.4154 
         -25      2.63226  0.000277209 -1.07822e-05      79.4153 
         -25      2.70389  0.000275742 -1.11065e-05      79.4151 
         -25      2.77648  0.000274142 -1.16083e-05      79.4149 
         -25      2.85002  0.000272449 -1.22793e-05      79.4146 
         -25      2.92453  0.000270724 -1.30992e-05      79.4144 
         -25            3  0.000269048 -1.40358e-05      79.4142 
           0            0            0            0      76.6656 
           0      0.00048  0.000141617 -9.20338e-05      76.6657 
           0     0.001922  0.000492412  -0.00031807      76.6662 
           0     0.004326  0.000869971 -0.000555262       76.667 
           0      0.00769   0.00108747 -0.000679212      76.6679 
           0     0.012017   0.00106252 -0.000638268      76.6689 
           0     0.017304  0.000864728 -0.000485336      76.6699 
           0     0.023553  0.000664457 -0.000341201      76.6709 
           0     0.030763  0.000600517 -0.000301822       76.672 
           0     0.038936  0.000654956 -0.000350753      76.6731 
           0     0.048069  0.000663868 -0.000366526      76.6743 
           0     0.058163  0.000535555 -0.000276263      76.6755 
           0     0.069219  0.000492664 -0.000232799      76.6767 
           0     0.081236  0.000568507 -0.000291264       76.678 
           0     0.094215  0.000499549 -0.000237725      76.6793 
           0     0.108155  0.000495314 -0.000229619      76.6805 
           0     0.123056  0.000478875  -0.00021707      76.6819 
           0     0.138918  0.000466898 -0.000205905      76.6832 
           0     0.155744  0.000462119 -0.000197367      76.6846 
           0     0.173529  0.000458872 -0.000189846      76.6859 
           0     0.192276   0.00045211 -0.000181748      76.6873 
           0     0.211984  0.000444921 -0.000173946      76.6887 
           0     0.232655  0.000444699 -0.000168623      76.6901 
           0     0.254285  0.000439163  -0.00016183      76.6915 
           0     0.276877  0.000436799 -0.000156568      76.6929 
           0     0.300431  0.000433793 -0.000151435      76.6943 
           0     0.324946  0.000430802 -0.000146635      76.6957 
           0     0.350424  0.000427844 -0.000142157      76.6972 
           0     0.376861  0.000424851 -0.000137955      76.6986 
           0      0.40426  0.000421796 -0.000134016         76.7 
           0     0.432621  0.000418662  -0.00013033      76.7015 
           0     0.461945  0.000415451 -0.000126844      76.7029 
           0     0.492228   0.00041217 -0.000123531      76.7044 
           0     0.523472  0.000408797 -0.000120417      76.7058 
           0     0.555678  0.000405335 -0.000117477      76.7073 
           0     0.588845  0.000401775 -0.000114687      76.7087 
           0     0.622976  0.000398101 -0.000112035      76.7102 
           0     0.658066  0.000394299 -0.000109525      76.7116 
           0     0.694117  0.000390341 -0.000107122       76.713 
           0      0.73113  0.000386236 -0.000104838      76.7145 
           0     0.769107  0.000381985  -0.00010268      76.7159 
           0     0.808042  0.000377584 -0.000100645      76.7173 
           0     0.847939  0.000373017 -9.86554e-05      76.7187 
           0     0.888797  0.000368308 -9.67612e-05      76.7201 
           0      0.93062  0.000363476 -9.49579e-05      76.7215 
           0       0.9734  0.000358546 -9.32351e-05      76.7229 
           0      1.01714  0.000353543 -9.15795e-05      76.7243 
           0      1.06185  0.000348497 -8.99795e-05      76.7257 
           0      1.10751  0.000343445 -8.84274e-05      76.7271 
           0      1.15414  0.000338426 -8.69233e-05      76.7285 
           0      1.20173  0.000333482  -8.5478e-05      76.7298 
           0      1.25028  0.000328605 -8.40604e-05      76.7312 
           0      1.29979  0.000323771 -8.26727e-05      76.7325 
           0      1.35026  0.000319012 -8.13096e-05      76.7338 
           0       1.4017   0.00031434 -7.99688e-05      76.7351 
           0      1.45409  0.000309744  -7.8651e-05      76.7364 
           0      1.50745   0.00030519 -7.73535e-05      76.7377 
           0      1.56176  0.000300639 -7.60611e-05       76.739 
           0      1.61705  0.000296028 -7.47638e-05      76.7403 
           0      1.67329  0.000291322 -7.35141e-05      76.7415 
           0      1.73049  0.000286583 -7.22677e-05      76.7428 
           0      1.78865  0.000281802 -7.10308e-05       76.744 
           0      1.84778  0.000276995 -6.98017e-05      76.7452 
           0      1.90786  0.000272198 -6.85745e-05      76.7464 
           0      1.96891  0.000267464 -6.73449e-05      76.7476 
           0      2.03092  0.000262845 -6.61202e-05      76.7488 
           0      2.09389  0.000258379 -6.49152e-05        76.75 
           0      2.15782  0.000254027 -6.36694e-05      76.7511 
           0      2.22272  0.000249783 -6.24514e-05      76.7522 
           0      2.28857  0.000245683 -6.12392e-05      76.7533 
           0      2.35539  0.000241789   -6.001e-05      76.7544 
           0      2.42317  0.000238168 -5.87414e-05      76.7555 
           0      2.49191  0.000234882 -5.74137e-05      76.7566 
           0      2.56161  0.000231973 -5.60122e-05      76.7576 
           0      2.63226  0.000229455 -5.45322e-05      76.7587 
           0      2.70389  0.000227325 -5.29758e-05      76.7597 
           0      2.77648  0.000225629 -5.13611e-05      76.7607 
           0      2.85002  0.000224282 -4.97139e-05      76.7617 
           0      2.92453  0.000223178  -4.8035e-05      76.7626 
           0            3  0.000222237 -4.63485e-05      76.7636 
          20            0            0            0      75.0157 
          20      0.00048  2.66191e-05    8.519e-10      75.0157 
          20     0.001922  9.38638e-05  3.14675e-09      75.0157 
          20     0.004326  0.000170302  6.08219e-09      75.0157 
          20      0.00769  0.000222657  8.29236e-09      75.0157 
          20     0.012017  0.000233949   7.8127e-09      75.0157 
          20     0.017304  0.000212095   2.0225e-09      75.0157 
          20     0.023553  0.000182956 -1.24141e-08      75.0157 
          20     0.030763  0.000169925  -3.9601e-08      75.0157 
          20     0.038936  0.000173468 -8.44699e-08      75.0157 
          20     0.048069  0.000170629 -1.52762e-07      75.0157 
          20     0.058163  0.000146543 -2.51067e-07      75.0157 
          20     0.069219  0.000132355 -3.86811e-07      75.0157 
          20     0.081236   0.00013598 -5.68281e-07      75.0157 
          20     0.094215   0.00011984 -8.03377e-07      75.0157 
          20     0.108155  0.000113136 -1.10037e-06      75.0157 
          20     0.123056  0.000105395 -1.46738e-06      75.0157 
          20     0.138918  9.92604e-05   -1.912e-06      75.0157 
          20     0.155744  9.52314e-05 -2.44122e-06      75.0157 
          20     0.173529  9.24895e-05 -3.06083e-06      75.0157 
          20     0.192276  9.02551e-05 -3.77569e-06      75.0157 
          20     0.211984  8.89326e-05 -4.58923e-06      75.0157 
          20     0.232655   8.9554e-05 -5.50381e-06      75.0157 
          20     0.254285  9.00682e-05  -6.5205e-06      75.0157 
          20     0.276877   9.1844e-05 -7.63819e-06      75.0157 
          20     0.300431  9.39764e-05 -8.85554e-06      75.0157 
          20     0.324946  9.64145e-05 -1.01697e-05      75.0157 
          20     0.350424  9.90836e-05 -1.15766e-05      75.0157 
          20     0.376861  0.000101894 -1.30711e-05      75.0157 
          20      0.40426  0.000104754 -1.46477e-05      75.0157 
          20     0.432621   0.00010758 -1.63002e-05      75.0157 
          20     0.461945  0.000110314 -1.80227e-05      75.0156 
          20     0.492228  0.000112926 -1.98087e-05      75.0156 
          20     0.523472  0.000115415 -2.16529e-05      75.0156 
          20     0.555678  0.000117788 -2.35499e-05      75.0156 
          20     0.588845  0.000120015 -2.54937e-05      75.0156 
          20     0.622976   0.00012203 -2.74813e-05      75.0156 
          20     0.658066  0.000123932 -2.95096e-05      75.0156 
          20     0.694117  0.000125653 -3.15736e-05      75.0156 
          20      0.73113  0.000127183 -3.36718e-05      75.0155 
          20     0.769107  0.000128548 -3.57995e-05      75.0155 
          20     0.808042  0.000129809 -3.79491e-05      75.0155 
          20     0.847939  0.000131052 -4.01111e-05      75.0155 
          20     0.888797  0.000132381 -4.22737e-05      75.0155 
          20      0.93062  0.000133906 -4.44243e-05      75.0154 
          20       0.9734  0.000135729 -4.65487e-05      75.0154 
          20      1.01714  0.000137934  -4.8634e-05      75.0154 
          20      1.06185  0.000140576 -5.06673e-05      75.0154 
          20      1.10751  0.000143668 -5.26378e-05      75.0153 
          20      1.15414   0.00014718 -5.45363e-05      75.0153 
          20      1.20173  0.000151041 -5.63553e-05      75.0153 
          20      1.25028   0.00015515 -5.80895e-05      75.0152 
          20      1.29979  0.000159406 -5.97337e-05      75.0152 
          20      1.35026  0.000163753 -6.12811e-05      75.0152 
          20       1.4017  0.000168244 -6.27196e-05      75.0151 
          20      1.45409  0.000173143 -6.40276e-05      75.0151 
          20      1.50745  0.000179021 -6.51721e-05       75.015 
          20      1.56176  0.000183736 -6.63809e-05       75.015 
          20      1.61705  0.000188606 -6.73903e-05      75.0149 
          20      1.67329  0.000193615 -6.82109e-05      75.0149 
          20      1.73049  0.000198737 -6.88547e-05      75.0148 
          20      1.78865  0.000203939 -6.93342e-05      75.0147 
          20      1.84778  0.000209182 -6.96622e-05      75.0147 
          20      1.90786  0.000214417 -6.98512e-05      75.0146 
          20      1.96891  0.000219597 -6.99136e-05      75.0145 
          20      2.03092  0.000224668 -6.98603e-05      75.0145 
          20      2.09389  0.000229578 -6.97011e-05      75.0144 
          20      2.15782  0.000234275 -6.94437e-05      75.0143 
          20      2.22272  0.000238711 -6.90934e-05      75.0142 
          20      2.28857  0.000242843 -6.86529e-05      75.0141 
          20      2.35539  0.000246637 -6.81218e-05       75.014 
          20      2.42317  0.000250068  -6.7496e-05       75.014 
          20      2.49191  0.000253123 -6.67685e-05      75.0139 
          20      2.56161  0.000255801 -6.59283e-05      75.0137 
          20      2.63226  0.000258117 -6.49612e-05      75.0136 
          20      2.70389  0.000260099 -6.38499e-05      75.0135 
          20      2.77648  0.000261788 -6.25751e-05      75.0134 
          20      2.85002  0.000263241  -6.1116e-05      75.0133 
          20      2.92453  0.000264523 -5.94515e-05      75.0132 
          20            3  0.000265704 -5.75623e-05       75.013 
          40            0            0            0      73.2852 
          40      0.00048  2.51801e-05  3.03416e-10      73.2852 
          40     0.001922  8.90094e-05   1.2444e-09      73.2852 
          40     0.004326  0.000162289   2.9046e-09      73.2852 
          40      0.00769  0.000214077  5.39594e-09      73.2852 
          40     0.012017  0.000228526  8.83244e-09      73.2852 
          40     0.017304  0.000212844  1.32772e-08      73.2852 
          40     0.023553   0.00019087  1.86978e-08      73.2852 
          40     0.030763  0.000184134  2.49041e-08      73.2852 
          40     0.038936  0.000192894  3.14989e-08      73.2852 
          40     0.048069   0.00019568  3.78279e-08      73.2852 
          40     0.058163  0.000178533  4.29512e-08      73.2852 
          40     0.069219  0.000170174  4.56014e-08      73.2852 
          40     0.081236  0.000177801  4.41061e-08      73.2852 
          40     0.094215  0.000166436   3.6846e-08      73.2852 
          40     0.108155   0.00016307  2.19531e-08      73.2852 
          40     0.123056  0.000157927 -2.66818e-09      73.2852 
          40     0.138918  0.000153431 -3.90311e-08      73.2852 
          40     0.155744  0.000150049 -8.90644e-08      73.2852 
          40     0.173529  0.000147056 -1.54547e-07      73.2852 
          40     0.192276  0.000143794 -2.37135e-07      73.2852 
          40     0.211984  0.000140723 -3.38274e-07      73.2852 
          40     0.232655  0.000138902 -4.59074e-07      73.2852 
          40     0.254285  0.000136539 -5.99902e-07      73.2852 
          40     0.276877  0.000135018 -7.62052e-07      73.2852 
          40     0.300431  0.000133606 -9.45597e-07      73.2852 
          40     0.324946  0.000132353 -1.14978e-06      73.2852 
          40     0.350424  0.000131273 -1.37414e-06      73.2852 
          40     0.376861   0.00013035 -1.61826e-06      73.2852 
          40      0.40426  0.000129546 -1.88162e-06      73.2852 
          40     0.432621  0.000128818 -2.16327e-06      73.2852 
          40     0.461945  0.000128132 -2.46161e-06      73.2852 
          40     0.492228  0.000127476 -2.77426e-06      73.2852 
          40     0.523472  0.000126863 -3.09842e-06      73.2852 
          40     0.555678  0.000126323 -3.43162e-06      73.2852 
          40     0.588845  0.000125866 -3.77333e-06      73.2852 
          40     0.622976  0.000125464 -4.12572e-06      73.2852 
          40     0.658066  0.000125219 -4.47198e-06      73.2852 
          40     0.694117   0.00012515 -4.80966e-06      73.2851 
          40      0.73113    0.0001253   -5.141e-06      73.2851 
          40     0.769107   0.00012571 -5.46613e-06      73.2851 
          40     0.808042  0.000126412 -5.78331e-06      73.2851 
          40     0.847939  0.000127433 -6.08946e-06      73.2851 
          40     0.888797  0.000128791 -6.38051e-06      73.2851 
          40      0.93062  0.000130495 -6.65215e-06      73.2851 
          40       0.9734  0.000132546 -6.90031e-06      73.2851 
          40      1.01714  0.000134933 -7.12205e-06      73.2851 
          40      1.06185  0.000137637 -7.31598e-06      73.2851 
          40      1.10751  0.000140633 -7.48271e-06      73.2851 
          40      1.15414  0.000143885 -7.62496e-06      73.2851 
          40      1.20173  0.000147355 -7.74713e-06       73.285 
          40      1.25028  0.000151004 -7.85431e-06       73.285 
          40      1.29979  0.000154796 -7.95032e-06       73.285 
          40      1.35026  0.000158704 -8.03464e-06       73.285 
          40       1.4017  0.000162716 -8.09774e-06       73.285 
          40      1.45409  0.000166846  -8.1147e-06       73.285 
          40      1.50745  0.000171135 -8.04072e-06       73.285 
          40      1.56176  0.000175428 -8.09565e-06      73.2849 
          40      1.61705  0.000179891 -8.10511e-06      73.2849 
          40      1.67329  0.000184444 -8.07122e-06      73.2849 
          40      1.73049  0.000189006 -7.99801e-06      73.2849 
          40      1.78865  0.000193496 -7.89107e-06      73.2849 
          40      1.84778  0.000197837 -7.75726e-06      73.2848 
          40      1.90786  0.000201955 -7.60434e-06      73.2848 
          40      1.96891  0.000205782 -7.44046e-06      73.2848 
          40      2.03092   0.00020926 -7.27366e-06      73.2848 
          40      2.09389  0.000212338 -7.11134e-06      73.2847 
          40      2.15782  0.000214973  -6.9597e-06      73.2847 
          40      2.22272  0.000217139 -6.82305e-06      73.2847 
          40      2.28857   0.00021882 -6.70332e-06      73.2847 
          40      2.35539  0.000220015  -6.5994e-06      73.2846 
          40      2.42317  0.000220741 -6.50668e-06      73.2846 
          40      2.49191  0.000221027 -6.41661e-06      73.2846 
          40      2.56161   0.00022092 -6.31635e-06      73.2845 
          40      2.63226  0.000220483 -6.18863e-06      73.2845 
          40      2.70389  0.000219792 -6.01181e-06      73.2844 
          40      2.77648  0.000218936 -5.76024e-06      73.2844 
          40      2.85002  0.000218013 -5.40483e-06      73.2844 
          40      2.92453   0.00021713 -4.91415e-06      73.2843 
          40            3   0.00021639 -4.25583e-06      73.2843 
          60            0           -0           -0      71.6445 
          60      0.00048  2.47652e-05  1.77977e-10      71.6445 
          60     0.001922  8.77923e-05   7.0364e-10      71.6445 
          60     0.004326  0.000160974   1.5626e-09      71.6445 
          60      0.00769  0.000214504   2.7711e-09      71.6445 
          60     0.012017  0.000233069  4.43555e-09      71.6445 
          60     0.017304  0.000223496     6.82e-09      71.6445 
          60     0.023553  0.000208583  1.04295e-08      71.6445 
          60     0.030763  0.000208887  1.60851e-08      71.6445 
          60     0.038936  0.000224499  2.49976e-08      71.6445 
          60     0.048069    0.0002346  3.88117e-08      71.6445 
          60     0.058163  0.000225591  5.96395e-08      71.6445 
          60     0.069219    0.0002249   9.0043e-08      71.6445 
          60     0.081236  0.000239267  1.32953e-07      71.6445 
          60     0.094215  0.000234898  1.91844e-07      71.6445 
          60     0.108155  0.000237591  2.70395e-07      71.6445 
          60     0.123056  0.000237822  3.72429e-07      71.6445 
          60     0.138918  0.000237828  5.01773e-07      71.6445 
          60     0.155744  0.000237997  6.62103e-07      71.6445 
          60     0.173529  0.000237608   8.5666e-07      71.6445 
          60     0.192276   0.00023604  1.08825e-06      71.6445 
          60     0.211984  0.000233782  1.35896e-06      71.6445 
          60     0.232655  0.000231927  1.67016e-06      71.6445 
          60     0.254285  0.000228852   2.0221e-06      71.6445 
          60     0.276877  0.000226004  2.41465e-06      71.6445 
          60     0.300431  0.000222806  2.84653e-06      71.6445 
          60     0.324946  0.000219435  3.31533e-06      71.6445 
          60     0.350424  0.000216026  3.81824e-06      71.6445 
          60     0.376861  0.000212676  4.35188e-06      71.6445 
          60      0.40426  0.000209443  4.91256e-06      71.6445 
          60     0.432621   0.00020636  5.49617e-06      71.6445 
          60     0.461945  0.000203447  6.09834e-06      71.6445 
          60     0.492228  0.000200718  6.71442e-06      71.6445 
          60     0.523472  0.000198194  7.34002e-06      71.6445 
          60     0.555678  0.000195889  7.97124e-06      71.6445 
          60     0.588845  0.000193777  8.60528e-06      71.6445 
          60     0.622976  0.000191808  9.24237e-06      71.6445 
          60     0.658066  0.000190016  9.87314e-06      71.6445 
          60     0.694117  0.000188347  1.04949e-05      71.6445 
          60      0.73113  0.000186814  1.11106e-05      71.6445 
          60     0.769107  0.000185432  1.17221e-05      71.6445 
          60     0.808042  0.000184214  1.23303e-05      71.6444 
          60     0.847939  0.000183172  1.29353e-05      71.6444 
          60     0.888797  0.000182315  1.35368e-05      71.6444 
          60      0.93062   0.00018165  1.41338e-05      71.6444 
          60       0.9734  0.000181178   1.4725e-05      71.6444 
          60      1.01714  0.000180897  1.53093e-05      71.6444 
          60      1.06185  0.000180798  1.58857e-05      71.6444 
          60      1.10751  0.000180865  1.64536e-05      71.6444 
          60      1.15414  0.000181078  1.70127e-05      71.6444 
          60      1.20173  0.000181411   1.7563e-05      71.6444 
          60      1.25028  0.000181831  1.81039e-05      71.6444 
          60      1.29979  0.000182307   1.8634e-05      71.6444 