Variables = x, y, u, v, p

Zone, I=416, F=POINT
         -50            0  1.62333e-19 -1.08589e-24     -9.53848 
         -50     0.013333  0.000138325  5.96746e-09     -9.53848 
         -50     0.053333  0.000136659  5.53136e-08     -9.53848 
         -50         0.12  0.000148564  2.14825e-07     -9.53847 
         -50     0.213332  0.000157341  8.18729e-07     -9.53847 
         -50     0.333332  0.000160299  2.41166e-06     -9.53845 
         -50         0.48  0.000161341  3.38956e-06     -9.53843 
         -50     0.653331  0.000161376  6.01485e-06      -9.5384 
         -50     0.853332  0.000158874   7.8569e-06     -9.53835 
         -50         1.08  0.000153786  9.86397e-06     -9.53827 
         -50      1.33333  0.000147554  1.16889e-05     -9.53817 
         -50      1.61333  0.000141924  1.28298e-05     -9.53804 
         -50         1.92  0.000135771  1.37309e-05     -9.53786 
         -50      2.25333  0.000114612   1.1314e-05     -9.53764 
         -50      2.61333  9.24998e-05  8.73032e-06     -9.53736 
         -50            3  9.07571e-05  1.24118e-05     -9.53701 
         -25            0           -0           -0     -9.15781 
         -25     0.013333   9.5142e-05 -7.79688e-09     -9.15781 
         -25     0.053333  8.19644e-05  -1.7043e-07     -9.15781 
         -25         0.12  8.54315e-05 -8.32707e-07     -9.15781 
         -25     0.213332   9.9194e-05 -2.24026e-06      -9.1578 
         -25     0.333332  0.000115513 -4.38966e-06      -9.1578 
         -25         0.48  0.000126953 -7.10102e-06     -9.15779 
         -25     0.653331  0.000128533 -1.05119e-05     -9.15778 
         -25     0.853332  0.000120966   -1.432e-05     -9.15776 
         -25         1.08  0.000111932 -1.78276e-05     -9.15773 
         -25      1.33333  0.000106027 -2.06899e-05     -9.15769 
         -25      1.61333  0.000101908   -2.257e-05     -9.15764 
         -25         1.92  0.000100029 -2.29737e-05     -9.15758 
         -25      2.25333  0.000100248 -2.22823e-05     -9.15749 
         -25      2.61333  9.58321e-05  -2.2862e-05     -9.15739 
         -25            3  8.62381e-05 -2.57644e-05     -9.15725 
           0            0            0            0     -8.84457 
           0     0.013333  0.000343965 -0.000197097     -8.84459 
           0     0.053333  0.000184881 -0.000103451     -8.84534 
           0         0.12  0.000130024 -6.47519e-05     -8.84615 
           0     0.213332  9.21873e-05 -5.07643e-05     -8.84698 
           0     0.333332   6.1727e-05 -4.14786e-05     -8.84784 
           0         0.48  3.97498e-05 -3.33087e-05      -8.8487 
           0     0.653331  2.91753e-05 -2.61384e-05     -8.84957 
           0     0.853332  2.95267e-05 -1.96098e-05     -8.85042 
           0         1.08  3.66598e-05  -1.3623e-05     -8.85125 
           0      1.33333  4.43475e-05 -8.36286e-06     -8.85205 
           0      1.61333   5.1293e-05 -4.03446e-06     -8.85282 
           0         1.92  5.97464e-05 -5.74234e-07     -8.85355 
           0      2.25333  6.98336e-05   2.0774e-06     -8.85424 
           0      2.61333   8.0062e-05  4.03763e-06     -8.85487 
           0            3  9.03969e-05  6.92349e-06     -8.85546 
          20            0            0            0     -8.65713 
          20     0.013333  9.70036e-05 -2.27373e-08     -8.65713 
          20     0.053333  0.000143842 -3.01623e-07     -8.65713 
          20         0.12  0.000208715  -9.3976e-07     -8.65713 
          20     0.213332  0.000251916 -1.18315e-06     -8.65712 
          20     0.333332  0.000257913   4.0801e-08     -8.65712 
          20         0.48  0.000239508   2.9642e-06     -8.65712 
          20     0.653331  0.000216593  7.24034e-06     -8.65711 
          20     0.853332  0.000196981  1.26777e-05      -8.6571 
          20         1.08  0.000170525  1.84514e-05     -8.65708 
          20      1.33333  0.000137076  2.35938e-05     -8.65706 
          20      1.61333  0.000100855   2.7717e-05     -8.65703 
          20         1.92  6.58065e-05   3.0516e-05       -8.657 
          20      2.25333   3.8248e-05  3.16133e-05     -8.65695 
          20      2.61333  2.17201e-05  3.12542e-05     -8.65689 
          20            3  1.64746e-05  3.05008e-05     -8.65682 
          40            0            0            0      -8.4611 
          40     0.013333  9.84751e-05 -2.39893e-08      -8.4611 
          40     0.053333   0.00016403 -2.87826e-07      -8.4611 
          40         0.12  0.000251451  -8.0322e-07      -8.4611 
          40     0.213332  0.000315886 -7.22041e-07      -8.4611 
          40     0.333332  0.000340856  1.12939e-06      -8.4611 
          40         0.48  0.000341884  5.20152e-06      -8.4611 
          40     0.653331  0.000335872  1.08694e-05      -8.4611 
          40     0.853332  0.000317505  1.66425e-05     -8.46109 
          40         1.08  0.000275155  2.12771e-05     -8.46109 
          40      1.33333  0.000217199  2.45157e-05     -8.46108 
          40      1.61333   0.00015564  2.67008e-05     -8.46107 
          40         1.92  8.98813e-05  2.76359e-05     -8.46106 
          40      2.25333  3.50132e-05  2.65479e-05     -8.46105 
          40      2.61333 -1.64562e-06  2.50523e-05     -8.46103 
          40            3 -1.80975e-05  2.52878e-05     -8.46101 
          60            0           -0           -0     -8.27568 
          60     0.013333  7.60849e-05 -3.28532e-08     -8.27568 
          60     0.053333  9.58303e-05  -4.6361e-07     -8.27568 
          60         0.12  0.000141581 -1.87283e-06     -8.27568 
          60     0.213332  0.000193288 -4.34468e-06     -8.27568 
          60     0.333332  0.000231917 -7.36286e-06     -8.27568 
          60         0.48  0.000251737 -1.04424e-05     -8.27568 
          60     0.653331  0.000253496 -1.36651e-05     -8.27568 
          60     0.853332  0.000233601 -1.75773e-05     -8.27568 
          60         1.08  0.000194917 -2.22566e-05     -8.27568 
          60      1.33333   0.00015404 -2.69653e-05     -8.27567 
          60      1.61333  0.000117833  -3.0746e-05     -8.27567 
          60         1.92  8.26447e-05 -3.30864e-05     -8.27566 
          60      2.25333   5.7021e-05  -3.3986e-05     -8.27565 
          60      2.61333  4.12452e-05 -3.33262e-05     -8.27564 
          60            3   3.2738e-05  -3.1405e-05     -8.27563 
          80            0           -0           -0     -8.09631 
          80     0.013333  6.00531e-05  -1.3271e-08     -8.09631 
          80     0.053333  3.93654e-05 -2.06195e-07     -8.09631 
          80         0.12  3.03759e-05 -9.55124e-07     -8.09631 
          80     0.213332  3.43004e-05 -2.61844e-06     -8.09631 
          80     0.333332  4.60334e-05 -5.31756e-06     -8.09631 
          80         0.48  5.72915e-05 -8.96229e-06     -8.09631 
          80     0.653331  6.18934e-05 -1.34329e-05     -8.09631 
          80     0.853332  5.79827e-05 -1.85648e-05     -8.09631 
          80         1.08  5.12459e-05 -2.38768e-05     -8.09631 
          80      1.33333  4.89292e-05 -2.86173e-05      -8.0963 
          80      1.61333  5.01565e-05 -3.23003e-05      -8.0963 
          80         1.92  5.26662e-05 -3.44307e-05     -8.09629 
          80      2.25333  5.84959e-05 -3.48835e-05     -8.09629 
          80      2.61333  6.52091e-05 -3.37556e-05     -8.09628 
          80            3  7.02698e-05 -3.10998e-05     -8.09627 
         100            0            0            0     -7.92065 
         100     0.013333   6.2412e-05  2.43658e-09     -7.92065 
         100     0.053333  4.66524e-05  2.55028e-08     -7.92065 
         100         0.12  3.39825e-05  6.48392e-08     -7.92065 
         100     0.213332   2.2215e-05  6.02853e-08     -7.92065 
         100     0.333332  1.12687e-05  -3.1248e-08     -7.92065 
         100         0.48  1.06667e-06 -1.72102e-07     -7.92065 
         100     0.653331  -6.4611e-06 -2.41218e-07     -7.92065 
         100     0.853332 -7.33674e-06 -4.40402e-08     -7.92065 
         100         1.08 -4.38057e-07  5.10682e-07     -7.92065 
         100      1.33333  9.42325e-06  1.28991e-06     -7.92065 
         100      1.61333  1.93527e-05  2.11003e-06     -7.92064 
         100         1.92   3.0805e-05  2.88344e-06     -7.92064 
         100      2.25333  4.53954e-05  3.79364e-06     -7.92064 
         100      2.61333  6.28389e-05  4.62564e-06     -7.92063 
         100            3  7.78207e-05  4.79548e-06     -7.92062 
         150            0           -0           -0     -7.48985 
         150     0.013333  9.16439e-05  2.00123e-08     -7.48985 
         150     0.053333   0.00014823  3.50387e-07     -7.48985 
         150         0.12  0.000204281  1.88175e-06     -7.48985 
         150     0.213332  0.000223095  5.83593e-06     -7.48985 
         150     0.333332  0.000208062  1.29048e-05     -7.48985 
         150         0.48  0.000186172  2.28755e-05     -7.48985 
         150     0.653331  0.000177722  3.50439e-05     -7.48985 
         150     0.853332  0.000180507  4.83018e-05     -7.48985 
         150         1.08  0.000174548  6.10366e-05     -7.48985 
         150      1.33333  0.000151498  7.19323e-05     -7.48985 
         150      1.61333  0.000121396  8.05663e-05     -7.48985 
         150         1.92  8.95449e-05  8.60215e-05     -7.48985 
         150      2.25333  5.90334e-05  8.78235e-05     -7.48985 
         150      2.61333  3.05096e-05  8.59891e-05     -7.48985 
         150            3  5.42939e-06  8.12058e-05     -7.48986 
         200            0  1.47044e-19  2.42004e-26     -7.06367 
         200     0.013333  5.52093e-05 -1.91891e-08     -7.06367 
         200     0.053333  3.18579e-05 -3.01858e-07     -7.06367 
         200         0.12  2.48392e-05 -1.43378e-06     -7.06367 
         200     0.213332  3.69894e-05 -3.98476e-06     -7.06367 
         200     0.333332  5.70433e-05 -8.03968e-06     -7.06367 
         200         0.48  7.02136e-05 -1.32247e-05     -7.06367 
         200     0.653331  7.05021e-05 -1.91384e-05     -7.06367 
         200     0.853332   6.1294e-05 -2.54317e-05     -7.06367 
         200         1.08  5.31364e-05 -3.14851e-05     -7.06367 
         200      1.33333  5.27766e-05 -3.66471e-05     -7.06367 
         200      1.61333  5.52227e-05 -4.07242e-05     -7.06367 
         200         1.92  5.68463e-05 -4.32785e-05     -7.06367 
         200      2.25333  5.77941e-05 -4.43308e-05     -7.06367 
         200      2.61333   5.6611e-05  -4.3697e-05     -7.06367 
         200            3  5.37376e-05 -4.14053e-05     -7.06367 
         250            0           -0           -0     -6.63789 
         250     0.013333  4.26151e-05 -1.06625e-08     -6.63789 
         250     0.053333 -1.37152e-05 -2.00503e-07     -6.63789 
         250         0.12  -6.0263e-05 -1.15992e-06     -6.63789 
         250     0.213332 -7.46457e-05 -3.84167e-06     -6.63789 
         250     0.333332 -5.83692e-05 -8.93033e-06     -6.63789 
         250         0.48 -3.36457e-05 -1.63063e-05     -6.63789 
         250     0.653331 -1.84295e-05 -2.52487e-05     -6.63789 
         250     0.853332  -1.3418e-05 -3.48846e-05     -6.63789 
         250         1.08 -8.72537e-06 -4.44005e-05     -6.63789 
         250      1.33333  2.01555e-06 -5.31668e-05     -6.63789 
         250      1.61333   1.7542e-05 -6.07062e-05     -6.63789 
         250         1.92  3.43869e-05 -6.64354e-05     -6.63789 
         250      2.25333  5.08822e-05 -6.97434e-05     -6.63789 
         250      2.61333  6.49019e-05 -7.04848e-05     -6.63789 
         250            3  7.44772e-05 -6.88106e-05     -6.63789 
         300            0           -0           -0      -6.2112 
         300     0.013333  5.04773e-06 -3.32081e-08      -6.2112 
         300     0.053333 -0.000138612 -6.07189e-07      -6.2112 
         300         0.12 -0.000262493 -3.42518e-06      -6.2112 
         300     0.213332  -0.00029424  -1.1139e-05      -6.2112 
         300     0.333332 -0.000236259  -2.5602e-05      -6.2112 
         300         0.48 -0.000152318  -4.6507e-05      -6.2112 
         300     0.653331 -9.82323e-05 -7.20352e-05      -6.2112 
         300     0.853332 -8.26771e-05 -9.99411e-05      -6.2112 
         300         1.08 -7.56321e-05 -0.000127726      -6.2112 
         300      1.33333 -5.04798e-05 -0.000153133      -6.2112 
         300      1.61333 -1.41989e-05 -0.000175037      -6.2112 
         300         1.92  2.06446e-05 -0.000192116      -6.2112 
         300      2.25333  5.45538e-05 -0.000202856      -6.2112 
         300      2.61333  8.48024e-05 -0.000206468     -6.21119 
         300            3  0.000107775 -0.000202796     -6.21119 
         350            0           -0           -0     -5.78351 
         350     0.013333  1.95635e-05  4.76684e-08     -5.78351 
         350     0.053333 -0.000110626  6.21569e-07     -5.78351 
         350         0.12 -0.000277551  2.20411e-06     -5.78351 
         350     0.213332 -0.000422342  4.08663e-06     -5.78351 
         350     0.333332 -0.000500127  4.60142e-06     -5.78351 
         350         0.48 -0.000516878  2.60456e-06     -5.78351 
         350     0.653331 -0.000505748 -1.64833e-06     -5.78351 
         350     0.853332 -0.000481465   -6.698e-06     -5.78351 
         350         1.08 -0.000429299  -1.0642e-05     -5.78351 
         350      1.33333 -0.000343851 -1.25252e-05     -5.78351 
         350      1.61333 -0.000248538 -1.31786e-05     -5.78351 
         350         1.92  -0.00015129 -1.33814e-05     -5.78351 
         350      2.25333 -5.44209e-05 -1.29557e-05      -5.7835 
         350      2.61333  3.83995e-05 -1.20319e-05     -5.78349 
         350            3  0.000120427 -1.07079e-05     -5.78349 
         400            0           -0           -0     -5.35441 
         400     0.013333  6.77429e-05  1.75996e-08     -5.35441 
         400     0.053333  6.79319e-05  2.60807e-07     -5.35441 
         400         0.12  6.66513e-05  1.15062e-06     -5.35441 
         400     0.213332  5.79474e-05  2.97214e-06     -5.35441 
         400     0.333332  4.95557e-05  5.62844e-06     -5.35441 
         400         0.48  4.88049e-05  8.81846e-06     -5.35441 
         400     0.653331  5.62188e-05  1.23871e-05     -5.35441 
         400     0.853332  6.93068e-05  1.63784e-05     -5.35441 
         400         1.08  8.44579e-05  2.07454e-05     -5.35441 
         400      1.33333  9.44373e-05  2.50828e-05     -5.35441 
         400      1.61333  9.43856e-05  2.88216e-05     -5.35441 
         400         1.92   8.9305e-05   3.1624e-05     -5.35441 
         400      2.25333  8.18931e-05  3.34185e-05     -5.35441 
         400      2.61333  7.30357e-05  3.40184e-05     -5.35441 
         400            3  6.46751e-05  3.34105e-05     -5.35441 
         450            0  9.03584e-20  9.59882e-27     -4.92385 
         450     0.013333  0.000102095  6.79809e-09     -4.92385 
         450     0.053333  0.000191546   1.6102e-07     -4.92385 
         450         0.12  0.000292936  1.11844e-06     -4.92385 
         450     0.213332  0.000348107  4.21079e-06     -4.92385 
         450     0.333332  0.000340079  1.07478e-05     -4.92385 
         450         0.48  0.000296481  2.10667e-05     -4.92385 
         450     0.653331  0.000255172  3.44489e-05     -4.92385 
         450     0.853332   0.00023222  4.96984e-05     -4.92385 
         450         1.08  0.000218153   6.5497e-05     -4.92385 
         450      1.33333  0.000196857  8.06627e-05     -4.92385 
         450      1.61333  0.000166376  9.44805e-05     -4.92386 
         450         1.92  0.000133345  0.000106414     -4.92386 
         450      2.25333  9.88211e-05  0.000115601     -4.92386 
         450      2.61333   6.4207e-05  0.000121341     -4.92386 
         450            3  3.29166e-05  0.000123214     -4.92387 
         500            0            0            0     -4.49159 
         500     0.013333  3.15898e-05  -4.5959e-08     -4.49159 
         500     0.053333  -4.3099e-05 -7.27667e-07     -4.49159 
         500         0.12    -8.88e-05 -3.52629e-06     -4.49159 
         500     0.213332 -7.17099e-05 -1.01404e-05     -4.49159 
         500     0.333332 -7.18293e-06 -2.13413e-05     -4.49159 
         500         0.48  5.94804e-05 -3.65525e-05     -4.49159 
         500     0.653331  9.53749e-05 -5.46251e-05     -4.49159 
         500     0.853332  9.44832e-05 -7.46393e-05     -4.49159 
         500         1.08  7.09671e-05 -9.57021e-05     -4.49159 
         500      1.33333  5.04272e-05  -0.00011639     -4.49159 
         500      1.61333  4.72777e-05 -0.000135165     -4.49159 
         500         1.92  4.99213e-05 -0.000151109     -4.49159 
         500      2.25333  5.24196e-05 -0.000163227     -4.49159 
         500      2.61333  5.42048e-05 -0.000170674     -4.49159 
         500            3  5.53463e-05 -0.000172837      -4.4916 
         550            0           -0           -0     -4.05731 
         550     0.013333  8.64264e-05  5.02375e-08     -4.05731 
         550     0.053333   0.00012375  7.75857e-07     -4.05731 
         550         0.12  0.000135631  3.65351e-06     -4.05731 
         550     0.213332  8.69788e-05  1.02526e-05     -4.05731 
         550     0.333332 -4.69705e-06  2.12168e-05     -4.05731 
         550         0.48 -9.50825e-05  3.59699e-05     -4.05731 
         550     0.653331  -0.00015264  5.34381e-05     -4.05731 
         550     0.853332 -0.000169496  7.28761e-05     -4.05731 
         550         1.08 -0.000151094  9.38612e-05     -4.05731 
         550      1.33333 -0.000114615  0.000115518     -4.05731 
         550      1.61333 -8.17022e-05  0.000136256     -4.05731 
         550         1.92 -5.36788e-05  0.000154619     -4.05731 
         550      2.25333 -2.48986e-05  0.000169473     -4.05731 
         550      2.61333  5.37205e-06  0.000179812     -4.05731 
         550            3  3.50752e-05  0.000184823     -4.05731 
         600            0           -0           -0     -3.62134 
         600     0.013333 -1.81109e-05  2.49751e-09     -3.62134 
         600     0.053333 -0.000235301 -6.17793e-08     -3.62134 
         600         0.12 -0.000482402 -9.55416e-07     -3.62134 
         600     0.213332 -0.000653778 -4.76858e-06     -3.62134 
         600     0.333332 -0.000694341 -1.41194e-05     -3.62134 
         600         0.48 -0.000635127 -3.03729e-05     -3.62134 
         600     0.653331 -0.000548564 -5.28711e-05     -3.62134 
         600     0.853332 -0.000482203 -7.96803e-05     -3.62134 
         600         1.08 -0.000435515 -0.000108538     -3.62134 
         600      1.33333 -0.000383764  -0.00013742     -3.62134 
         600      1.61333 -0.000314071 -0.000164898     -3.62134 
         600         1.92 -0.000232775 -0.000189978     -3.62134 
         600      2.25333 -0.000144334 -0.000211113     -3.62134 
         600      2.61333 -5.32272e-05 -0.000227011     -3.62133 
         600            3  3.39231e-05 -0.000236541     -3.62132 
         650            0            0            0     -3.18348 
         650     0.013333  0.000132132 -5.55152e-08     -3.18348 
         650     0.053333  0.000320812 -7.43322e-07     -3.18348 
         650         0.12  0.000594163 -2.76586e-06     -3.18348 
         650     0.213332  0.000859324 -5.54554e-06     -3.18348 
         650     0.333332   0.00103641 -7.13855e-06     -3.18348 
         650         0.48   0.00110993 -5.71199e-06     -3.18348 
         650     0.653331   0.00111961  -8.2838e-07     -3.18348 
         650     0.853332   0.00110467  6.45733e-06     -3.18348 
         650         1.08   0.00106386  1.40269e-05     -3.18348 
         650      1.33333  0.000971735  1.97125e-05     -3.18348 
         650      1.61333  0.000832275  2.29649e-05     -3.18348 
         650         1.92  0.000679143  2.49891e-05     -3.18349 
         650      2.25333  0.000519064  2.61526e-05     -3.18349 
         650      2.61333  0.000353793  2.65077e-05      -3.1835 
         650            3  0.000190146  2.59754e-05     -3.18351 
         700            0            0            0     -2.74551 
         700     0.013333  9.45092e-05  3.72376e-09     -2.74551 
         700     0.053333  0.000168215  8.30065e-08     -2.74551 
         700         0.12  0.000261324  5.77005e-07     -2.74551 
         700     0.213332  0.000326518  2.27791e-06     -2.74551 
         700     0.333332  0.000338721  6.22761e-06     -2.74551 
         700         0.48  0.000306648  1.30942e-05     -2.74551 
         700     0.653331  0.000258646  2.27282e-05     -2.74551 
         700     0.853332  0.000216549  3.44127e-05     -2.74551 
         700         1.08  0.000186808  4.74105e-05     -2.74551 
         700      1.33333   0.00016956  6.13836e-05     -2.74551 
         700      1.61333    0.0001601  7.60525e-05     -2.74551 
         700         1.92  0.000146161   9.0339e-05     -2.74551 
         700      2.25333  0.000125834  0.000103343     -2.74551 
         700      2.61333  0.000102634  0.000114106     -2.74552 
         700            3  7.99332e-05  0.000121886     -2.74552 
         750            0           -0           -0     -2.30648 
         750     0.013333    1.421e-05  5.85118e-08     -2.30648 
         750     0.053333 -0.000136628  8.08269e-07     -2.30648 
         750         0.12 -0.000349111  3.17577e-06     -2.30648 
         750     0.213332 -0.000559661  6.94146e-06     -2.30648 
         750     0.333332 -0.000696741  1.03818e-05     -2.30648 
         750         0.48  -0.00074037  1.16593e-05     -2.30648 
         750     0.653331 -0.000724261  1.03832e-05     -2.30648 
         750     0.853332  -0.00068426  7.78707e-06     -2.30649 
         750         1.08 -0.000622689   5.8098e-06     -2.30649 
         750      1.33333 -0.000530751   5.5808e-06     -2.30649 
         750      1.61333 -0.000425184   6.5143e-06     -2.30648 
         750         1.92 -0.000326495  7.35468e-06     -2.30648 
         750      2.25333 -0.000228002  7.84465e-06     -2.30648 
         750      2.61333 -0.000125563  8.10153e-06     -2.30647 
         750            3 -2.26869e-05    8.156e-06     -2.30647 
         800            0            0            0     -1.86516 
         800     0.013333  0.000112558 -5.06854e-08     -1.86516 
         800     0.053333  0.000247169 -6.79911e-07     -1.86516 
         800         0.12  0.000443969 -2.52318e-06     -1.86516 
         800     0.213332  0.000625265 -4.98111e-06     -1.86516 
         800     0.333332  0.000724322 -6.14426e-06     -1.86516 
         800         0.48  0.000735881 -4.39376e-06     -1.86516 
         800     0.653331   0.00070509  1.76607e-07     -1.86516 
         800     0.853332  0.000667919  5.84676e-06     -1.86516 
         800         1.08  0.000616616  1.02458e-05     -1.86516 
         800      1.33333  0.000529671  1.18322e-05     -1.86516 
         800      1.61333  0.000424091  1.12472e-05     -1.86516 
         800         1.92  0.000335444  1.03832e-05     -1.86517 
         800      2.25333   0.00025554  9.74144e-06     -1.86517 
         800      2.61333  0.000174536  9.22095e-06     -1.86518 
         800            3  9.34855e-05  8.61599e-06     -1.86518 
         850            0           -0           -0     -1.42325 
         850     0.013333 -1.84514e-05  5.90868e-08     -1.42325 
         850     0.053333  -0.00025413  7.77542e-07     -1.42325 
         850         0.12 -0.000567001  2.76895e-06     -1.42325 
         850     0.213332 -0.000847966  4.97491e-06     -1.42325 
         850     0.333332  -0.00100013  4.62877e-06     -1.42325 
         850         0.48  -0.00101514 -6.38382e-07     -1.42325 
         850     0.653331 -0.000960162 -1.09225e-05     -1.42325 
         850     0.853332 -0.000896525 -2.41306e-05     -1.42325 
         850         1.08 -0.000825584 -3.71553e-05     -1.42325 
         850      1.33333 -0.000715881 -4.75032e-05     -1.42325 
         850      1.61333 -0.000573809  -5.5085e-05     -1.42325 
         850         1.92 -0.000442175 -6.17753e-05     -1.42325 
         850      2.25333 -0.000317841 -6.80072e-05     -1.42325 
         850      2.61333 -0.000191086 -7.34062e-05     -1.42324 
         850            3 -6.23914e-05 -7.73221e-05     -1.42323 
         900            0           -0           -0    -0.979256 
         900     0.013333  9.65175e-05 -9.68232e-08    -0.979256 
         900     0.053333  0.000206544 -1.39828e-06    -0.979256 
         900         0.12  0.000419215 -5.94563e-06    -0.979256 
         900     0.213332  0.000684169 -1.47093e-05    -0.979256 
         900     0.333332  0.000910548 -2.64741e-05    -0.979256 
         900         0.48   0.00103891 -3.89577e-05    -0.979256 
         900     0.653331   0.00107738 -5.08624e-05    -0.979255 
         900     0.853332   0.00106054 -6.27881e-05    -0.979255 
         900         1.08  0.000996124 -7.66692e-05    -0.979255 
         900      1.33333  0.000873916 -9.39423e-05    -0.979255 
         900      1.61333  0.000720499 -0.000113579    -0.979256 
         900         1.92  0.000587787 -0.000132548    -0.979259 
         900      2.25333  0.000466282 -0.000149086    -0.979263 
         900      2.61333    0.0003416 -0.000162522     -0.97927 
         900            3  0.000213684  -0.00017236    -0.979279 
         950            0           -0           -0    -0.534935 
         950     0.013333  7.83962e-05  1.50351e-08    -0.534935 
         950     0.053333  0.000109658  2.19844e-07    -0.534935 
         950         0.12  0.000153769   9.4572e-07    -0.534935 
         950     0.213332  0.000194784  2.39197e-06    -0.534935 
         950     0.333332  0.000226952   4.5317e-06    -0.534935 
         950         0.48  0.000244996  7.39145e-06    -0.534935 
         950     0.653331  0.000244707  1.13307e-05    -0.534935 
         950     0.853332  0.000232761  1.70192e-05    -0.534936 
         950         1.08   0.00022945  2.52051e-05    -0.534936 
         950      1.33333  0.000248605  3.61081e-05    -0.534936 
         950      1.61333  0.000270443  4.84394e-05    -0.534936 
         950         1.92  0.000261283  6.00822e-05    -0.534937 
         950      2.25333   0.00023202  7.04034e-05    -0.534937 
         950      2.61333   0.00019678  7.89985e-05    -0.534937 
         950            3  0.000159156  8.56633e-05    -0.534938 
        1000            0  1.04281e-19   2.1573e-24   -0.0887653 
        1000     0.013333  0.000142994 -2.23968e-08   -0.0887653 
        1000     0.053333  0.000354335 -2.92019e-07   -0.0887653 
        1000         0.12  0.000639479 -5.76528e-07   -0.0887653 
        1000     0.213332  0.000886084   1.1331e-06   -0.0887652 
        1000     0.333332   0.00100535  8.22026e-06    -0.088765 
        1000         0.48  0.000987056  2.31683e-05   -0.0887647 
        1000     0.653331  0.000892069  4.59024e-05   -0.0887643 
        1000     0.853332   0.00078795  7.41503e-05   -0.0887639 
        1000         1.08   0.00069417  0.000104749   -0.0887638 
        1000      1.33333  0.000589423  0.000135071   -0.0887643 
        1000      1.61333  0.000467258  0.000164407   -0.0887657 
        1000         1.92  0.000354065  0.000193219   -0.0887686 
        1000      2.25333  0.000247015  0.000221325   -0.0887736 
        1000      2.61333  0.000137989  0.000247262   -0.0887812 
        1000            3   2.6854e-05  0.000269411   -0.0887918 
