Variables = x, y, u, v, p

Zone, I=416, F=POINT
         -50            0  1.22122e-19  2.97407e-23       69.754 
         -50     0.013333  0.000101931  4.70122e-08       69.754 
         -50     0.053333  9.39887e-05  1.17213e-07       69.754 
         -50         0.12  8.64802e-05  1.75135e-07       69.754 
         -50     0.213332  8.13784e-05 -2.48647e-08       69.754 
         -50     0.333332  7.83376e-05 -4.83576e-07      69.7539 
         -50         0.48  7.49043e-05  -2.0542e-07      69.7538 
         -50     0.653331  7.27992e-05 -1.18659e-06      69.7535 
         -50     0.853332  7.47124e-05 -9.45685e-07      69.7532 
         -50         1.08  8.10513e-05 -5.88244e-07      69.7527 
         -50      1.33333  8.80435e-05 -2.58796e-07       69.752 
         -50      1.61333  9.28423e-05  8.75169e-08      69.7511 
         -50         1.92   9.6648e-05  1.90239e-07      69.7498 
         -50      2.25333  9.88167e-05 -2.30283e-07      69.7483 
         -50      2.61333   0.00010186  1.36899e-06      69.7463 
         -50            3   0.00010859  8.53344e-06      69.7438 
         -25            0           -0           -0       66.944 
         -25     0.013333  7.56154e-05  1.40644e-08       66.944 
         -25     0.053333  7.24884e-05   4.7427e-09       66.944 
         -25         0.12  7.10619e-05 -8.90762e-08       66.944 
         -25     0.213332  7.19606e-05 -3.39844e-07       66.944 
         -25     0.333332  7.43567e-05 -7.69546e-07       66.944 
         -25         0.48  7.55588e-05 -1.47996e-06      66.9439 
         -25     0.653331  7.46162e-05 -2.18449e-06      66.9438 
         -25     0.853332  7.22869e-05 -3.04498e-06      66.9437 
         -25         1.08  7.04603e-05   -3.909e-06      66.9435 
         -25      1.33333  6.99342e-05 -4.57185e-06      66.9433 
         -25      1.61333  7.00047e-05 -4.83244e-06      66.9429 
         -25         1.92  7.38996e-05  -5.0289e-06      66.9424 
         -25      2.25333  8.40361e-05 -3.19358e-06      66.9418 
         -25      2.61333  9.16961e-05  -2.0011e-06      66.9411 
         -25            3  8.86064e-05  -5.9463e-06      66.9401 
           0            0            0            0       64.626 
           0     0.013333  0.000147719 -0.000137576      64.6289 
           0     0.053333  0.000129896 -7.06407e-05      64.6337 
           0         0.12  9.40648e-05 -5.59835e-05      64.6391 
           0     0.213332  5.78828e-05 -4.30545e-05      64.6449 
           0     0.333332  2.98613e-05 -3.40444e-05      64.6508 
           0         0.48  1.12284e-05 -2.65139e-05      64.6569 
           0     0.653331  2.59622e-06 -1.99938e-05      64.6629 
           0     0.853332  3.05712e-06 -1.41596e-05      64.6689 
           0         1.08  1.03727e-05 -8.94147e-06      64.6746 
           0      1.33333  2.12975e-05 -4.44101e-06      64.6802 
           0      1.61333   3.5391e-05 -8.43316e-07      64.6855 
           0         1.92  5.07385e-05  1.61068e-06      64.6906 
           0      2.25333    6.181e-05  2.64694e-06      64.6953 
           0      2.61333  6.63566e-05  2.46883e-06      64.6997 
           0            3  6.62355e-05  2.62339e-06      64.7037 
          20            0            0            0      63.2204 
          20     0.013333  7.83485e-05 -2.05527e-10      63.2204 
          20     0.053333  0.000124723 -7.30056e-08      63.2204 
          20         0.12  0.000177568 -8.51993e-08      63.2204 
          20     0.213332  0.000209925  6.28032e-07      63.2204 
          20     0.333332  0.000213172  2.89093e-06      63.2204 
          20         0.48  0.000198688   6.9733e-06      63.2203 
          20     0.653331  0.000182313  1.26223e-05      63.2203 
          20     0.853332  0.000168703  1.94632e-05      63.2202 
          20         1.08  0.000149619  2.65555e-05      63.2201 
          20      1.33333  0.000123483  3.28443e-05        63.22 
          20      1.61333  9.35444e-05  3.76997e-05      63.2198 
          20         1.92  6.52865e-05  4.08327e-05      63.2195 
          20      2.25333  4.18864e-05  4.13174e-05      63.2192 
          20      2.61333  2.91055e-05  4.05754e-05      63.2187 
          20            3  2.96067e-05  4.06013e-05      63.2182 
          40            0            0            0      61.7589 
          40     0.013333  8.47274e-05 -4.27531e-08      61.7589 
          40     0.053333  0.000164417 -5.76135e-07      61.7589 
          40         0.12  0.000265715 -1.93391e-06      61.7589 
          40     0.213332   0.00033961 -3.17597e-06      61.7589 
          40     0.333332  0.000362899 -2.66937e-06      61.7589 
          40         0.48  0.000352924  1.66539e-07      61.7589 
          40     0.653331    0.0003306  4.30881e-06      61.7588 
          40     0.853332  0.000294531  8.12943e-06      61.7588 
          40         1.08  0.000243294  1.11049e-05      61.7588 
          40      1.33333  0.000186016  1.34719e-05      61.7587 
          40      1.61333  0.000126482  1.54892e-05      61.7587 
          40         1.92  6.50104e-05  1.66542e-05      61.7586 
          40      2.25333  2.01482e-05  1.70102e-05      61.7584 
          40      2.61333 -7.79963e-06   1.6293e-05      61.7583 
          40            3 -2.60051e-05   1.3856e-05      61.7581 
          60            0           -0           -0      60.3722 
          60     0.013333  8.49823e-05 -2.76388e-08      60.3722 
          60     0.053333  0.000167418 -3.28959e-07      60.3722 
          60         0.12  0.000265413  -8.2869e-07      60.3722 
          60     0.213332  0.000333319 -4.09787e-07      60.3722 
          60     0.333332  0.000357599  2.23858e-06      60.3722 
          60         0.48  0.000359484  7.32694e-06      60.3721 
          60     0.653331  0.000355643  1.36833e-05      60.3721 
          60     0.853332  0.000330214  1.90381e-05      60.3721 
          60         1.08   0.00026999  2.19176e-05      60.3721 
          60      1.33333  0.000201912  2.29741e-05      60.3721 
          60      1.61333  0.000139146  2.33725e-05       60.372 
          60         1.92  7.68908e-05  2.28544e-05       60.372 
          60      2.25333  2.79242e-05  2.11953e-05      60.3719 
          60      2.61333 -3.82159e-06   1.9207e-05      60.3718 
          60            3 -1.91225e-05  1.76328e-05      60.3717 
          80            0           -0           -0      59.0283 
          80     0.013333  5.93486e-05  1.30988e-08      59.0283 
          80     0.053333   7.2257e-05  2.09101e-07      59.0283 
          80         0.12  7.69078e-05  1.07091e-06      59.0283 
          80     0.213332  6.80693e-05  3.08459e-06      59.0283 
          80     0.333332  5.71702e-05  6.19211e-06      59.0283 
          80         0.48  5.56173e-05  9.86631e-06      59.0283 
          80     0.653331  6.36189e-05   1.3555e-05      59.0283 
          80     0.853332   6.9301e-05  1.65168e-05      59.0283 
          80         1.08  6.10852e-05  1.79074e-05      59.0283 
          80      1.33333  4.98945e-05  1.78504e-05      59.0282 
          80      1.61333  4.62508e-05  1.71127e-05      59.0282 
          80         1.92  4.52705e-05  1.55996e-05      59.0282 
          80      2.25333  4.60491e-05  1.33947e-05      59.0281 
          80      2.61333  4.90341e-05  1.08783e-05      59.0281 
          80            3  5.38985e-05  8.54766e-06       59.028 
         100            0            0            0      57.7115 
         100     0.013333  5.82748e-05  4.36757e-08      57.7115 
         100     0.053333  6.36817e-05   6.5021e-07      57.7115 
         100         0.12  4.42882e-05  2.92852e-06      57.7115 
         100     0.213332 -1.41383e-06  7.70368e-06      57.7115 
         100     0.333332 -4.86753e-05  1.47782e-05      57.7115 
         100         0.48 -7.58063e-05   2.3327e-05      57.7115 
         100     0.653331 -7.70784e-05  3.27648e-05      57.7115 
         100     0.853332 -5.82369e-05  4.26977e-05      57.7115 
         100         1.08  -3.4117e-05  5.21904e-05      57.7115 
         100      1.33333 -1.45565e-05  6.01524e-05      57.7115 
         100      1.61333  5.38611e-06  6.60228e-05      57.7114 
         100         1.92   2.8553e-05   6.8982e-05      57.7114 
         100      2.25333  5.11174e-05  6.90615e-05      57.7114 
         100      2.61333  6.79326e-05  6.60876e-05      57.7114 
         100            3  7.36168e-05  6.03966e-05      57.7113 
         150            0           -0           -0      54.4828 
         150     0.013333  4.23755e-05  6.65829e-09      54.4828 
         150     0.053333  2.09001e-05  6.86643e-08      54.4828 
         150         0.12 -2.71822e-06  1.41248e-07      54.4828 
         150     0.213332 -1.70397e-05 -7.08616e-08      54.4828 
         150     0.333332 -1.92806e-05 -8.70894e-07      54.4828 
         150         0.48 -1.64851e-05 -2.25401e-06      54.4828 
         150     0.653331 -1.36671e-05 -3.91151e-06      54.4828 
         150     0.853332 -8.19059e-06 -5.33639e-06      54.4828 
         150         1.08  4.55595e-06 -6.11344e-06      54.4828 
         150      1.33333  2.03682e-05 -6.26365e-06      54.4828 
         150      1.61333  3.46713e-05 -6.13374e-06      54.4828 
         150         1.92  4.94809e-05 -5.65089e-06      54.4828 
         150      2.25333  6.34463e-05 -4.92071e-06      54.4828 
         150      2.61333  7.09678e-05 -4.17302e-06      54.4828 
         150            3  6.94465e-05 -3.22506e-06      54.4828 
         200            0  1.18789e-19  1.23832e-25      51.2945 
         200     0.013333  5.19462e-05  -2.0385e-08      51.2945 
         200     0.053333  6.16088e-05 -3.03238e-07      51.2945 
         200         0.12  8.60512e-05  -1.3315e-06      51.2945 
         200     0.213332  0.000118917 -3.38758e-06      51.2945 
         200     0.333332   0.00014456 -6.21903e-06      51.2945 
         200         0.48  0.000152973  -9.2623e-06      51.2945 
         200     0.653331  0.000147357 -1.21253e-05      51.2945 
         200     0.853332  0.000135028 -1.47127e-05      51.2945 
         200         1.08  0.000120766 -1.69968e-05      51.2945 
         200      1.33333  0.000106506 -1.88789e-05      51.2945 
         200      1.61333  9.17817e-05 -2.01846e-05      51.2944 
         200         1.92  7.52464e-05 -2.07911e-05      51.2944 
         200      2.25333  5.93468e-05 -2.05796e-05      51.2944 
         200      2.61333  4.46424e-05 -1.96477e-05      51.2944 
         200            3  3.22857e-05 -1.80277e-05      51.2944 
         250            0           -0           -0      48.1201 
         250     0.013333  1.62662e-05 -8.80978e-08      48.1201 
         250     0.053333 -4.50155e-05 -1.36811e-06      48.1201 
         250         0.12 -5.24483e-05 -6.43993e-06      48.1201 
         250     0.213332  2.90768e-05 -1.78827e-05      48.1201 
         250     0.333332  0.000155881 -3.63029e-05      48.1201 
         250         0.48  0.000258148 -6.02182e-05      48.1201 
         250     0.653331  0.000300529 -8.77698e-05      48.1201 
         250     0.853332  0.000285694 -0.000117633      48.1201 
         250         1.08   0.00024116 -0.000148147      48.1201 
         250      1.33333  0.000200502 -0.000176854      48.1201 
         250      1.61333  0.000169614 -0.000201492      48.1201 
         250         1.92  0.000133181 -0.000220025      48.1201 
         250      2.25333  9.83253e-05  -0.00023074      48.1201 
         250      2.61333  6.59828e-05 -0.000232974      48.1201 
         250            3  3.53503e-05 -0.000227007      48.1201 
         300            0           -0           -0      44.9506 
         300     0.013333  6.27542e-06 -1.79451e-08      44.9506 
         300     0.053333 -0.000100794 -3.33586e-07      44.9506 
         300         0.12 -0.000210628 -1.90177e-06      44.9506 
         300     0.213332 -0.000270886 -6.21923e-06      44.9506 
         300     0.333332 -0.000273972 -1.43919e-05      44.9506 
         300         0.48 -0.000251168 -2.64817e-05      44.9505 
         300     0.653331  -0.00023504   -4.184e-05      44.9505 
         300     0.853332 -0.000235201  -5.9418e-05      44.9505 
         300         1.08 -0.000231388 -7.74197e-05      44.9505 
         300      1.33333 -0.000197696  -9.3663e-05      44.9505 
         300      1.61333 -0.000141018 -0.000107072      44.9506 
         300         1.92 -7.98093e-05  -0.00011717      44.9506 
         300      2.25333  -1.8579e-05  -0.00012306      44.9506 
         300      2.61333  3.92358e-05 -0.000124425      44.9506 
         300            3  8.90746e-05 -0.000121325      44.9506 
         350            0           -0           -0      41.7832 
         350     0.013333  7.68635e-05 -7.87329e-09      41.7832 
         350     0.053333  0.000146025 -7.16509e-08      41.7832 
         350         0.12  0.000226757 -8.72027e-09      41.7832 
         350     0.213332  0.000279332  9.82463e-07      41.7832 
         350     0.333332   0.00028533  3.98763e-06      41.7832 
         350         0.48  0.000258961  9.51168e-06      41.7832 
         350     0.653331  0.000226797  1.71314e-05      41.7832 
         350     0.853332  0.000201043   2.5913e-05      41.7832 
         350         1.08  0.000178409  3.49895e-05      41.7832 
         350      1.33333  0.000154798  4.38558e-05      41.7832 
         350      1.61333  0.000130005  5.22089e-05      41.7832 
         350         1.92  0.000103249  5.93752e-05      41.7832 
         350      2.25333  7.60143e-05  6.48671e-05      41.7832 
         350      2.61333  5.03452e-05  6.81649e-05      41.7832 
         350            3  2.76981e-05   6.8935e-05      41.7832 
         400            0           -0           -0      38.6166 
         400     0.013333  1.37935e-05 -7.59737e-08      38.6166 
         400     0.053333 -5.65787e-05 -1.18412e-06      38.6166 
         400         0.12 -7.93506e-05 -5.62745e-06      38.6166 
         400     0.213332 -9.73037e-06 -1.58787e-05      38.6166 
         400     0.333332  0.000121098 -3.28839e-05      38.6166 
         400         0.48  0.000244244 -5.56117e-05      38.6166 
         400     0.653331  0.000314986 -8.23224e-05      38.6166 
         400     0.853332  0.000325611  -0.00011177      38.6166 
         400         1.08  0.000292491  -0.00014285      38.6166 
         400      1.33333  0.000248218 -0.000173618      38.6166 
         400      1.61333  0.000214048 -0.000201703      38.6166 
         400         1.92  0.000179128 -0.000225208      38.6166 
         400      2.25333  0.000142262 -0.000242386      38.6166 
         400      2.61333  0.000104887 -0.000251919      38.6166 
         400            3  6.85249e-05 -0.000253093      38.6166 
         450            0  8.11822e-20 -4.62309e-28      35.4502 
         450     0.013333  0.000108964  1.05079e-07      35.4502 
         450     0.053333  0.000227621  1.64865e-06      35.4502 
         450         0.12  0.000284773  7.91538e-06      35.4502 
         450     0.213332  0.000204031  2.26139e-05      35.4502 
         450     0.333332  2.18237e-05  4.74417e-05      35.4502 
         450         0.48 -0.000161936  8.11739e-05      35.4502 
         450     0.653331 -0.000273774   0.00012126      35.4502 
         450     0.853332 -0.000298121  0.000165621      35.4502 
         450         1.08 -0.000258831  0.000212507      35.4502 
         450      1.33333 -0.000200056  0.000259389      35.4502 
         450      1.61333 -0.000152722  0.000303184      35.4502 
         450         1.92 -0.000108118  0.000340994      35.4502 
         450      2.25333 -6.13114e-05  0.000370141      35.4502 
         450      2.61333 -1.32475e-05  0.000388339      35.4502 
         450            3  3.30208e-05  0.000394149      35.4502 
         500            0            0            0      32.2844 
         500     0.013333 -3.51231e-06 -1.22083e-07      32.2844 
         500     0.053333  -0.00010597  -1.8831e-06      32.2844 
         500         0.12 -0.000135649  -8.8353e-06      32.2844 
         500     0.213332   -2.839e-05 -2.46357e-05      32.2844 
         500     0.333332  0.000166002 -5.05478e-05      32.2844 
         500         0.48  0.000344245 -8.49333e-05      32.2844 
         500     0.653331  0.000441419 -0.000125224      32.2844 
         500     0.853332  0.000448249  -0.00016975      32.2844 
         500         1.08  0.000387235 -0.000217319      32.2844 
         500      1.33333  0.000305557 -0.000265492      32.2844 
         500      1.61333  0.000246104 -0.000310615      32.2844 
         500         1.92  0.000199111 -0.000349659      32.2844 
         500      2.25333  0.000151954 -0.000380146      32.2844 
         500      2.61333  0.000103924 -0.000399856      32.2844 
         500            3   5.9134e-05 -0.000407173      32.2844 
         550            0           -0           -0      29.1184 
         550     0.013333  0.000116918  1.34826e-07      29.1184 
         550     0.053333  0.000246755  2.09976e-06      29.1184 
         550         0.12  0.000294154  9.98235e-06      29.1184 
         550     0.213332  0.000173067  2.82237e-05      29.1184 
         550     0.333332 -6.36496e-05  5.86231e-05      29.1184 
         550         0.48 -0.000289853  9.93925e-05      29.1184 
         550     0.653331 -0.000418441  0.000147298      29.1184 
         550     0.853332 -0.000435665  0.000199958      29.1184 
         550         1.08 -0.000373039  0.000255623      29.1184 
         550      1.33333 -0.000287127   0.00031152      29.1184 
         550      1.61333 -0.000222099  0.000363976      29.1184 
         550         1.92 -0.000167602  0.000409978      29.1184 
         550      2.25333 -0.000109753  0.000446657      29.1184 
         550      2.61333 -4.79667e-05  0.000471479      29.1184 
         550            3  1.22806e-05  0.000482447      29.1184 
         600            0           -0           -0      25.9529 
         600     0.013333 -4.08872e-05 -1.32674e-07      25.9529 
         600     0.053333 -0.000236428 -2.08815e-06      25.9529 
         600         0.12 -0.000365591 -1.00677e-05      25.9529 
         600     0.213332 -0.000314189 -2.88941e-05      25.9529 
         600     0.333332 -0.000117216 -6.08921e-05      25.9529 
         600         0.48  9.59912e-05 -0.000104644      25.9529 
         600     0.653331  0.000224399 -0.000156999      25.9529 
         600     0.853332  0.000241733  -0.00021544      25.9529 
         600         1.08  0.000177771 -0.000277858      25.9529 
         600      1.33333  0.000100606 -0.000340807      25.9529 
         600      1.61333  6.72155e-05 -0.000399856      25.9529 
         600         1.92  6.01779e-05   -0.0004517      25.9529 
         600      2.25333  5.66572e-05 -0.000493867      25.9529 
         600      2.61333  5.17215e-05 -0.000523392      25.9529 
         600            3  4.78463e-05 -0.000537797      25.9529 
         650            0            0            0      22.7875 
         650     0.013333  0.000131962  1.05527e-07      22.7875 
         650     0.053333  0.000310282  1.67145e-06      22.7875 
         650         0.12  0.000439844  8.12448e-06      22.7875 
         650     0.213332  0.000416538  2.35082e-05      22.7875 
         650     0.333332  0.000262849  4.99002e-05      22.7875 
         650         0.48  8.55445e-05   8.6257e-05      22.7875 
         650     0.653331 -2.56389e-05  0.000129996      22.7875 
         650     0.853332 -4.35781e-05  0.000179025      22.7875 
         650         1.08  8.88467e-06  0.000231567      22.7875 
         650      1.33333  7.15283e-05  0.000284607      22.7875 
         650      1.61333  9.11684e-05  0.000334102      22.7875 
         650         1.92  8.29894e-05  0.000377709      22.7875 
         650      2.25333  7.16655e-05  0.000413253      22.7875 
         650      2.61333  6.28794e-05  0.000438758      22.7875 
         650            3  5.41019e-05  0.000452334      22.7875 
         700            0            0            0      19.6222 
         700     0.013333 -2.39238e-05 -2.33475e-08      19.6222 
         700     0.053333 -0.000210864 -4.21027e-07      19.6222 
         700         0.12 -0.000419283  -2.3739e-06      19.6222 
         700     0.213332   -0.0005578 -7.86661e-06      19.6222 
         700     0.333332 -0.000591785   -1.873e-05      19.6222 
         700         0.48 -0.000554179  -3.5588e-05      19.6222 
         700     0.653331 -0.000501575 -5.78651e-05      19.6222 
         700     0.853332 -0.000472394 -8.45214e-05      19.6222 
         700         1.08  -0.00047041 -0.000114203      19.6222 
         700      1.33333 -0.000464351 -0.000144751      19.6222 
         700      1.61333 -0.000417668 -0.000173503      19.6222 
         700         1.92 -0.000338202 -0.000198915      19.6222 
         700      2.25333 -0.000247388  -0.00022017      19.6222 
         700      2.61333 -0.000153658  -0.00023614      19.6222 
         700            3 -5.91129e-05 -0.000245689      19.6222 
         750            0           -0           -0      16.4575 
         750     0.013333  6.17273e-05 -5.48158e-08      16.4575 
         750     0.053333  0.000108475 -8.11442e-07      16.4575 
         750         0.12  0.000209192 -3.58775e-06      16.4575 
         750     0.213332   0.00034982 -9.32289e-06      16.4575 
         750     0.333332  0.000482826  -1.7706e-05      16.4575 
         750         0.48  0.000564556 -2.74379e-05      16.4575 
         750     0.653331  0.000586922 -3.73529e-05      16.4575 
         750     0.853332  0.000566382 -4.71381e-05      16.4575 
         750         1.08  0.000520194 -5.70287e-05      16.4575 
         750      1.33333  0.000460672 -6.70704e-05      16.4575 
         750      1.61333  0.000397271 -7.68761e-05      16.4575 
         750         1.92  0.000332324 -8.59658e-05      16.4575 
         750      2.25333  0.000264263 -9.36454e-05      16.4575 
         750      2.61333   0.00019335 -9.95042e-05      16.4575 
         750            3  0.000122033 -0.000103124      16.4575 
         800            0            0            0      13.2924 
         800     0.013333  0.000108478   9.2775e-08      13.2924 
         800     0.053333  0.000226938  1.46962e-06      13.2924 
         800         0.12  0.000284317  7.15947e-06      13.2924 
         800     0.213332  0.000195615  2.08078e-05      13.2924 
         800     0.333332 -1.02111e-05  4.43607e-05      13.2924 
         800         0.48 -0.000224723  7.67638e-05      13.2924 
         800     0.653331 -0.000357629  0.000115178      13.2924 
         800     0.853332 -0.000388076  0.000157068      13.2924 
         800         1.08 -0.000346018  0.000200712      13.2924 
         800      1.33333 -0.000282269  0.000244189      13.2924 
         800      1.61333 -0.000235372  0.000285288      13.2924 
         800         1.92 -0.000200653  0.000322471      13.2924 
         800      2.25333 -0.000160681  0.000354307      13.2924 
         800      2.61333 -0.000112195  0.000379054      13.2924 
         800            3 -6.01133e-05  0.000394883      13.2924 
         850            0           -0           -0      10.1269 
         850     0.013333  -0.00012056  3.87136e-08      10.1269 
         850     0.053333 -0.000577554   3.9372e-07      10.1269 
         850         0.12    -0.001152  5.01125e-07      10.1269 
         850     0.213332  -0.00161845 -2.85758e-06      10.1269 
         850     0.333332  -0.00182683 -1.46788e-05      10.1269 
         850         0.48  -0.00179835 -3.83528e-05      10.1269 
         850     0.653331   -0.0016679 -7.35034e-05      10.1269 
         850     0.853332  -0.00154953  -0.00011682      10.1269 
         850         1.08  -0.00145911 -0.000163746      10.1269 
         850      1.33333     -0.00134 -0.000209744      10.1269 
         850      1.61333  -0.00115615  -0.00025196      10.1269 
         850         1.92 -0.000940705 -0.000290221       10.127 
         850      2.25333 -0.000715257 -0.000323812       10.127 
         850      2.61333 -0.000482658 -0.000351341       10.127 
         850            3  -0.00024422 -0.000371011       10.127 
         900            0           -0           -0      6.96303 
         900     0.013333  5.27324e-05  -1.8038e-07      6.96303 
         900     0.053333  0.000116506 -2.68867e-06      6.96303 
         900         0.12  0.000340583 -1.20339e-05      6.96303 
         900     0.213332  0.000727744 -3.18653e-05      6.96303 
         900     0.333332   0.00115244  -6.2127e-05      6.96303 
         900         0.48    0.0014686 -9.94855e-05      6.96303 
         900     0.653331   0.00162069 -0.000140482      6.96303 
         900     0.853332   0.00163224 -0.000184006      6.96303 
         900         1.08   0.00153279   -0.0002311      6.96303 
         900      1.33333   0.00134459 -0.000282318      6.96303 
         900      1.61333   0.00112285 -0.000335369      6.96303 
         900         1.92  0.000927164 -0.000385608      6.96303 
         900      2.25333  0.000741035 -0.000430283      6.96302 
         900      2.61333  0.000547135 -0.000466884      6.96301 
         900            3  0.000346812 -0.000493184        6.963 
         950            0           -0           -0      3.79828 
         950     0.013333  0.000166387 -2.35411e-08      3.79828 
         950     0.053333  0.000479163 -2.50719e-07      3.79828 
         950         0.12  0.000886438 -4.41145e-07      3.79828 
         950     0.213332   0.00124619  1.10032e-06      3.79828 
         950     0.333332   0.00145384  7.17636e-06      3.79828 
         950         0.48   0.00150046  2.00054e-05      3.79828 
         950     0.653331   0.00145466  4.00049e-05      3.79828 
         950     0.853332   0.00139218  6.60173e-05      3.79828 
         950         1.08   0.00134375  9.59835e-05      3.79828 
         950      1.33333   0.00128532  0.000127198      3.79828 
         950      1.61333   0.00117561  0.000156811      3.79828 
         950         1.92   0.00101339  0.000183315      3.79828 
         950      2.25333  0.000827705  0.000206481      3.79827 
         950      2.61333   0.00063253  0.000225682      3.79826 
         950            3  0.000429525  0.000239897      3.79826 
        1000            0  8.71434e-20   2.1928e-24     0.633364 
        1000     0.013333   0.00012751   4.6413e-08     0.633364 
        1000     0.053333  0.000320219  7.13485e-07     0.633364 
        1000         0.12  0.000533496  3.78663e-06     0.633364 
        1000     0.213332  0.000665626  1.22299e-05     0.633364 
        1000     0.333332  0.000670667  2.89246e-05     0.633364 
        1000         0.48  0.000576951  5.50209e-05     0.633365 
        1000     0.653331  0.000452694  8.96038e-05     0.633365 
        1000     0.853332  0.000354727  0.000130743     0.633365 
        1000         1.08  0.000302598  0.000176439     0.633365 
        1000      1.33333  0.000279906   0.00022483     0.633364 
        1000      1.61333  0.000254354  0.000273934     0.633363 
        1000         1.92  0.000208578  0.000321752     0.633361 
        1000      2.25333  0.000148881  0.000366387     0.633358 
        1000      2.61333  8.37313e-05  0.000405965     0.633353 
        1000            3  1.67515e-05  0.000438564     0.633347 
