Variables = x, y, u, v, p

Zone, I=416, F=POINT
         -50            0  9.22482e-20   2.8489e-23      79.5691 
         -50     0.013333  8.22766e-05  5.69918e-08      79.5691 
         -50     0.053333  9.96075e-05   2.3825e-07      79.5691 
         -50         0.12  0.000112322   8.3957e-07      79.5691 
         -50     0.213332  0.000119393  2.01231e-06      79.5691 
         -50     0.333332  0.000122512  4.07534e-06       79.569 
         -50         0.48  0.000126256  7.54267e-06      79.5688 
         -50     0.653331   0.00013165  1.09764e-05      79.5686 
         -50     0.853332  0.000134426  1.42154e-05      79.5682 
         -50         1.08  0.000130911  1.76003e-05      79.5676 
         -50      1.33333  0.000123771  2.00052e-05      79.5668 
         -50      1.61333  0.000116351  2.12207e-05      79.5657 
         -50         1.92  0.000113281  2.30339e-05      79.5643 
         -50      2.25333  0.000116475  2.28637e-05      79.5625 
         -50      2.61333   0.00011351  1.92358e-05      79.5603 
         -50            3  9.94151e-05  1.33737e-05      79.5575 
         -25            0           -0           -0      76.3755 
         -25     0.013333  5.56588e-05  1.92255e-08      76.3755 
         -25     0.053333  5.72779e-05  7.56061e-08      76.3755 
         -25         0.12  5.40144e-05  2.73703e-07      76.3755 
         -25     0.213332  4.83382e-05  7.19613e-07      76.3755 
         -25     0.333332  4.14454e-05  1.44015e-06      76.3754 
         -25         0.48  3.60725e-05  2.33539e-06      76.3754 
         -25     0.653331   3.4197e-05  3.60133e-06      76.3753 
         -25     0.853332  3.61141e-05  4.93033e-06      76.3751 
         -25         1.08   4.0842e-05  6.35049e-06      76.3749 
         -25      1.33333  4.70989e-05  7.77961e-06      76.3746 
         -25      1.61333  5.59211e-05  9.24062e-06      76.3742 
         -25         1.92  6.88777e-05  1.07144e-05      76.3736 
         -25      2.25333  8.20116e-05  1.28323e-05       76.373 
         -25      2.61333  9.02177e-05  1.39059e-05      76.3721 
         -25            3  9.00944e-05   1.1362e-05       76.371 
           0            0            0            0      73.7418 
           0     0.013333  9.15027e-05 -8.63623e-05      73.7446 
           0     0.053333  8.65434e-05 -4.85813e-05        73.75 
           0         0.12  6.41652e-05 -3.86489e-05      73.7562 
           0     0.213332  5.10595e-05    -3.02e-05      73.7628 
           0     0.333332  4.50294e-05 -2.44848e-05      73.7696 
           0         0.48  4.17265e-05 -2.05523e-05      73.7764 
           0     0.653331  3.89905e-05 -1.76454e-05      73.7833 
           0     0.853332  3.66862e-05  -1.5402e-05        73.79 
           0         1.08  3.60517e-05 -1.35248e-05      73.7966 
           0      1.33333  3.68284e-05 -1.19065e-05      73.8029 
           0      1.61333  3.81179e-05 -1.04811e-05       73.809 
           0         1.92  3.88743e-05 -9.09053e-06      73.8147 
           0      2.25333  4.16644e-05 -6.99018e-06        73.82 
           0      2.61333   5.8028e-05 -2.78609e-06       73.825 
           0            3  7.19373e-05 -4.06387e-06      73.8295 
          20            0            0            0      72.1445 
          20     0.013333  4.56259e-05  2.00342e-08      72.1445 
          20     0.053333  5.00596e-05   1.8279e-07      72.1445 
          20         0.12  4.62693e-05  8.07926e-07      72.1445 
          20     0.213332  3.61011e-05  2.17529e-06      72.1445 
          20     0.333332  2.59497e-05  4.27131e-06      72.1445 
          20         0.48  2.04959e-05  6.78551e-06      72.1445 
          20     0.653331  1.80629e-05  9.35659e-06      72.1444 
          20     0.853332  1.83679e-05  1.19117e-05      72.1443 
          20         1.08  2.19708e-05  1.43786e-05      72.1442 
          20      1.33333  2.59477e-05  1.64746e-05       72.144 
          20      1.61333  3.00961e-05  1.78998e-05      72.1438 
          20         1.92  3.63898e-05  1.84582e-05      72.1435 
          20      2.25333  3.79554e-05  1.78706e-05      72.1431 
          20      2.61333  3.72847e-05  1.69644e-05      72.1426 
          20            3  4.02705e-05  1.60002e-05       72.142 
          40            0            0            0      70.4846 
          40     0.013333  4.10531e-05  2.94983e-08      70.4846 
          40     0.053333   3.8408e-05  3.90245e-07      70.4846 
          40         0.12  2.02817e-05  1.67137e-06      70.4846 
          40     0.213332 -6.14234e-06  4.17347e-06      70.4846 
          40     0.333332 -2.68855e-05  7.60861e-06      70.4846 
          40         0.48 -3.41792e-05  1.15052e-05      70.4845 
          40     0.653331 -2.87393e-05  1.57049e-05      70.4845 
          40     0.853332 -1.45534e-05  2.01716e-05      70.4845 
          40         1.08  6.99334e-07  2.44591e-05      70.4845 
          40      1.33333  1.16989e-05  2.79101e-05      70.4844 
          40      1.61333  2.09175e-05  3.02222e-05      70.4843 
          40         1.92  3.20304e-05  3.07346e-05      70.4842 
          40      2.25333  3.92534e-05  3.01623e-05      70.4841 
          40      2.61333  4.53562e-05  2.83449e-05      70.4839 
          40            3  5.13919e-05  2.38084e-05      70.4837 
          60            0           -0           -0      68.9101 
          60     0.013333  4.72333e-05  2.09784e-08      68.9101 
          60     0.053333  6.56242e-05  2.96965e-07      68.9101 
          60         0.12  7.35799e-05  1.37809e-06      68.9101 
          60     0.213332  6.50585e-05  3.80207e-06      68.9101 
          60     0.333332  4.66776e-05  7.74325e-06      68.9101 
          60         0.48  3.13145e-05  1.30541e-05      68.9101 
          60     0.653331  2.82008e-05  1.95341e-05      68.9101 
          60     0.853332  3.76357e-05  2.68594e-05      68.9101 
          60         1.08  4.87559e-05  3.42934e-05        68.91 
          60      1.33333  5.08915e-05  4.08606e-05        68.91 
          60      1.61333  4.56011e-05   4.5872e-05      68.9099 
          60         1.92   3.9503e-05  4.89478e-05      68.9099 
          60      2.25333  3.28414e-05  4.94455e-05      68.9098 
          60      2.61333  2.88075e-05  4.81085e-05      68.9097 
          60            3  3.05954e-05  4.65498e-05      68.9096 
          80            0           -0           -0      67.3847 
          80     0.013333  3.68927e-05   1.0009e-08      67.3847 
          80     0.053333  3.45265e-05  1.29147e-07      67.3847 
          80         0.12  2.72879e-05  5.32259e-07      67.3847 
          80     0.213332  2.23522e-05  1.22759e-06      67.3847 
          80     0.333332  2.53665e-05  1.95906e-06      67.3847 
          80         0.48  3.59025e-05  2.45271e-06      67.3847 
          80     0.653331  4.84193e-05  2.61838e-06      67.3846 
          80     0.853332  5.66028e-05  2.38229e-06      67.3846 
          80         1.08  5.69614e-05   1.5867e-06      67.3846 
          80      1.33333  5.35493e-05  3.11388e-07      67.3846 
          80      1.61333  5.01615e-05 -1.12694e-06      67.3846 
          80         1.92  4.50413e-05 -2.72205e-06      67.3845 
          80      2.25333  3.86874e-05 -4.14634e-06      67.3845 
          80      2.61333   3.1532e-05 -5.60589e-06      67.3844 
          80            3  2.30554e-05 -7.69876e-06      67.3843 
         100            0            0            0        65.89 
         100     0.013333  3.49118e-05  3.38765e-08        65.89 
         100     0.053333   2.2178e-05  4.86775e-07        65.89 
         100         0.12  -1.3674e-05  2.10482e-06        65.89 
         100     0.213332 -6.26892e-05  5.29306e-06        65.89 
         100     0.333332 -0.000104498   9.6964e-06        65.89 
         100         0.48 -0.000126357  1.46375e-05        65.89 
         100     0.653331 -0.000127748  1.97839e-05        65.89 
         100     0.853332 -0.000111552  2.51531e-05        65.89 
         100         1.08 -8.45238e-05  3.04494e-05        65.89 
         100      1.33333 -5.55787e-05  3.50777e-05      65.8899 
         100      1.61333 -2.56971e-05  3.84932e-05      65.8899 
         100         1.92  6.94035e-06  4.04034e-05      65.8899 
         100      2.25333  3.24742e-05   4.0415e-05      65.8899 
         100      2.61333  4.97974e-05  3.90022e-05      65.8898 
         100            3   6.3192e-05  3.74327e-05      65.8898 
         150            0           -0           -0      62.2249 
         150     0.013333   2.4379e-05  2.11993e-08      62.2249 
         150     0.053333 -9.37216e-06  2.80408e-07      62.2249 
         150         0.12 -5.92945e-05  1.04888e-06      62.2249 
         150     0.213332 -0.000105079  2.17628e-06      62.2249 
         150     0.333332 -0.000132943  3.13776e-06      62.2249 
         150         0.48 -0.000143607  3.54205e-06      62.2249 
         150     0.653331  -0.00014392  3.47166e-06      62.2249 
         150     0.853332 -0.000133616   3.4695e-06      62.2249 
         150         1.08 -0.000108562  4.04001e-06      62.2249 
         150      1.33333 -7.50403e-05  5.08594e-06      62.2249 
         150      1.61333 -3.99234e-05  6.09469e-06      62.2249 
         150         1.92 -1.82348e-06  6.92626e-06      62.2248 
         150      2.25333  3.30233e-05  7.60792e-06      62.2248 
         150      2.61333  6.08436e-05  7.88342e-06      62.2248 
         150            3  7.86406e-05  7.55919e-06      62.2248 
         200            0  8.60471e-20  9.54002e-26      58.6039 
         200     0.013333  3.58551e-05  3.10563e-08      58.6039 
         200     0.053333  2.86386e-05  4.55419e-07      58.6039 
         200         0.12  1.28445e-06  1.97574e-06      58.6039 
         200     0.213332 -3.81846e-05  4.97786e-06      58.6039 
         200     0.333332 -7.12207e-05    9.137e-06      58.6039 
         200         0.48 -8.60417e-05  1.38455e-05      58.6039 
         200     0.653331 -8.31004e-05  1.88398e-05      58.6039 
         200     0.853332 -6.70239e-05  2.41409e-05      58.6039 
         200         1.08 -4.57305e-05  2.94444e-05      58.6039 
         200      1.33333 -2.72087e-05  3.41455e-05      58.6039 
         200      1.61333 -9.77585e-06  3.78018e-05      58.6039 
         200         1.92  1.06627e-05  4.02358e-05      58.6039 
         200      2.25333  2.98302e-05  4.10083e-05      58.6039 
         200      2.61333   4.5986e-05  4.02453e-05      58.6039 
         200            3  5.83885e-05  3.81746e-05      58.6039 
         250            0           -0           -0      54.9963 
         250     0.013333  1.50261e-05 -5.13891e-09      54.9963 
         250     0.053333 -3.43679e-05  -1.2579e-07      54.9963 
         250         0.12 -8.29955e-05 -8.67278e-07      54.9963 
         250     0.213332  -0.00010028 -3.15816e-06      54.9963 
         250     0.333332 -8.59014e-05  -7.6985e-06      54.9963 
         250         0.48 -6.23236e-05 -1.43838e-05      54.9963 
         250     0.653331 -4.84231e-05  -2.2503e-05      54.9963 
         250     0.853332 -4.40897e-05 -3.10864e-05      54.9963 
         250         1.08 -3.57164e-05 -3.90612e-05      54.9963 
         250      1.33333 -1.85103e-05  -4.5792e-05      54.9963 
         250      1.61333 -6.29054e-07 -5.12986e-05      54.9963 
         250         1.92  1.66679e-05 -5.53145e-05      54.9963 
         250      2.25333   3.4244e-05 -5.72903e-05      54.9963 
         250      2.61333  4.99297e-05 -5.71992e-05      54.9963 
         250            3  6.12091e-05 -5.51497e-05      54.9963 
         300            0           -0           -0      51.3917 
         300     0.013333    1.825e-05  3.91464e-09      51.3917 
         300     0.053333 -2.67415e-05  2.97252e-08      51.3917 
         300         0.12 -8.05672e-05 -5.45294e-08      51.3917 
         300     0.213332 -0.000116647 -7.25645e-07      51.3917 
         300     0.333332 -0.000124566  -2.5899e-06      51.3917 
         300         0.48 -0.000112905 -5.94737e-06      51.3917 
         300     0.653331 -9.70609e-05 -1.06575e-05      51.3917 
         300     0.853332 -8.54199e-05 -1.62915e-05      51.3917 
         300         1.08 -7.48164e-05 -2.22289e-05      51.3917 
         300      1.33333 -5.79032e-05 -2.77663e-05      51.3917 
         300      1.61333 -3.56748e-05  -3.2546e-05      51.3917 
         300         1.92  -1.2654e-05 -3.62935e-05      51.3917 
         300      2.25333  8.86125e-06 -3.88342e-05      51.3917 
         300      2.61333  2.92278e-05 -3.98998e-05      51.3917 
         300            3  4.87744e-05 -3.93559e-05      51.3917 
         350            0           -0           -0       47.787 
         350     0.013333    6.227e-05   5.3009e-08       47.787 
         350     0.053333  0.000114498  8.31525e-07       47.787 
         350         0.12  0.000133803  3.97395e-06       47.787 
         350     0.213332  9.17137e-05  1.12345e-05       47.787 
         350     0.333332  1.11768e-05  2.32189e-05       47.787 
         350         0.48 -6.04984e-05  3.91062e-05       47.787 
         350     0.653331 -9.45127e-05  5.76391e-05       47.787 
         350     0.853332 -8.97664e-05  7.78702e-05       47.787 
         350         1.08 -6.39305e-05   9.8746e-05       47.787 
         350      1.33333 -4.09168e-05  0.000118751       47.787 
         350      1.61333 -2.75325e-05  0.000136479       47.787 
         350         1.92 -1.30802e-05  0.000150779       47.787 
         350      2.25333  1.55615e-06  0.000160506       47.787 
         350      2.61333  1.51864e-05  0.000164851       47.787 
         350            3  2.73467e-05  0.000163525       47.787 
         400            0           -0           -0      44.1813 
         400     0.013333  6.96858e-05 -4.57578e-08      44.1813 
         400     0.053333    0.0001682 -6.20422e-07      44.1813 
         400         0.12  0.000306609 -2.36547e-06      44.1813 
         400     0.213332  0.000437243 -4.96693e-06      44.1813 
         400     0.333332   0.00051487 -7.07816e-06      44.1813 
         400         0.48  0.000535026 -7.50585e-06      44.1813 
         400     0.653331  0.000522915 -6.19046e-06      44.1813 
         400     0.853332  0.000495527 -4.10984e-06      44.1813 
         400         1.08  0.000448417 -2.55803e-06      44.1813 
         400      1.33333  0.000379319 -2.12131e-06      44.1813 
         400      1.61333  0.000302393 -2.27629e-06      44.1813 
         400         1.92  0.000223051 -2.39844e-06      44.1813 
         400      2.25333  0.000142635 -2.61914e-06      44.1813 
         400      2.61333  6.42495e-05 -2.82722e-06      44.1813 
         400            3 -6.54762e-06 -2.93815e-06      44.1813 
         450            0  2.93182e-20  -1.5398e-26       40.573 
         450     0.013333 -1.43807e-07 -5.39986e-08       40.573 
         450     0.053333 -7.53995e-05 -8.65671e-07       40.573 
         450         0.12 -0.000121048 -4.25409e-06       40.573 
         450     0.213332 -9.00994e-05 -1.23507e-05       40.573 
         450     0.333332 -5.04732e-06  -2.6071e-05       40.573 
         450         0.48  7.49359e-05 -4.45213e-05       40.573 
         450     0.653331  0.000110823 -6.60503e-05       40.573 
         450     0.853332  0.000101806 -8.92692e-05       40.573 
         450         1.08  7.34221e-05 -0.000112786       40.573 
         450      1.33333  5.63207e-05 -0.000134856       40.573 
         450      1.61333  5.60393e-05 -0.000154193       40.573 
         450         1.92  5.55683e-05  -0.00016999       40.573 
         450      2.25333  5.26734e-05 -0.000181271       40.573 
         450      2.61333  4.86355e-05 -0.000187068       40.573 
         450            3  4.41481e-05 -0.000186808       40.573 
         500            0            0            0      36.9618 
         500     0.013333 -1.13451e-06  8.39841e-08      36.9618 
         500     0.053333 -0.000118548  1.17813e-06      36.9618 
         500         0.12 -0.000307924  4.76737e-06      36.9618 
         500     0.213332 -0.000507806  1.09987e-05      36.9618 
         500     0.333332 -0.000646189  1.81514e-05      36.9618 
         500         0.48 -0.000700571  2.42973e-05      36.9618 
         500     0.653331 -0.000697755  2.90984e-05      36.9618 
         500     0.853332 -0.000660355  3.39455e-05      36.9618 
         500         1.08  -0.00058311  4.06569e-05      36.9618 
         500      1.33333 -0.000471876  4.94597e-05      36.9618 
         500      1.61333  -0.00036042  5.85047e-05      36.9618 
         500         1.92 -0.000255745  6.62168e-05      36.9618 
         500      2.25333 -0.000149701  7.21698e-05      36.9618 
         500      2.61333 -4.36344e-05  7.60471e-05      36.9618 
         500            3  5.41521e-05  7.75622e-05      36.9618 
         550            0           -0           -0      33.3479 
         550     0.013333  7.68323e-05   2.3021e-08      33.3479 
         550     0.053333  0.000174789  3.98569e-07      33.3479 
         550         0.12   0.00026939  2.13514e-06      33.3479 
         550     0.213332  0.000311483  6.70477e-06      33.3479 
         550     0.333332  0.000294347  1.51352e-05      33.3479 
         550         0.48   0.00025114  2.73798e-05      33.3479 
         550     0.653331  0.000218713  4.27256e-05      33.3479 
         550     0.853332  0.000213618   6.0377e-05      33.3479 
         550         1.08   0.00022534  7.91737e-05      33.3479 
         550      1.33333  0.000222213  9.71783e-05      33.3479 
         550      1.61333  0.000190081  0.000112823      33.3479 
         550         1.92   0.00015102  0.000125832      33.3479 
         550      2.25333  0.000112761  0.000135772      33.3479 
         550      2.61333  7.49922e-05  0.000141998      33.3479 
         550            3  3.82309e-05  0.000143921      33.3479 
         600            0           -0           -0      29.7308 
         600     0.013333   4.8916e-05  2.83328e-08      29.7308 
         600     0.053333  7.09614e-05   4.5697e-07      29.7308 
         600         0.12  6.42517e-05  2.27246e-06      29.7308 
         600     0.213332  8.19747e-06  6.71254e-06      29.7308 
         600     0.333332 -8.25434e-05   1.4421e-05      29.7308 
         600         0.48 -0.000168038  2.49138e-05      29.7308 
         600     0.653331 -0.000218696  3.70172e-05      29.7308 
         600     0.853332 -0.000232291  4.96457e-05      29.7308 
         600         1.08 -0.000224563  6.19773e-05      29.7308 
         600      1.33333 -0.000210849  7.34426e-05      29.7308 
         600      1.61333 -0.000191261  8.38884e-05      29.7308 
         600         1.92 -0.000159601  9.32671e-05      29.7308 
         600      2.25333 -0.000120248  0.000101029      29.7308 
         600      2.61333 -7.66283e-05  0.000106468      29.7308 
         600            3 -3.11264e-05  0.000109056      29.7308 
         650            0            0            0      26.1117 
         650     0.013333 -2.48317e-05 -2.62273e-08      26.1117 
         650     0.053333 -0.000175199 -4.57254e-07      26.1117 
         650         0.12 -0.000336646 -2.49311e-06      26.1117 
         650     0.213332  -0.00042878 -8.04412e-06      26.1117 
         650     0.333332 -0.000428525 -1.87633e-05      26.1117 
         650         0.48  -0.00037225 -3.50682e-05      26.1117 
         650     0.653331 -0.000313234 -5.62339e-05      26.1117 
         650     0.853332 -0.000283111 -8.11255e-05      26.1117 
         650         1.08 -0.000280213 -0.000108417      26.1117 
         650      1.33333 -0.000275647 -0.000136168      26.1117 
         650      1.61333 -0.000243513 -0.000162263      26.1117 
         650         1.92 -0.000192483 -0.000185751      26.1117 
         650      2.25333 -0.000135368 -0.000205295      26.1117 
         650      2.61333 -7.61512e-05 -0.000219879      26.1117 
         650            3 -1.58571e-05 -0.000228568      26.1117 
         700            0            0            0      22.4917 
         700     0.013333  3.28061e-05 -8.71089e-09      22.4917 
         700     0.053333  2.76792e-05 -1.34041e-07      22.4917 
         700         0.12   3.0408e-05 -6.46795e-07      22.4917 
         700     0.213332  5.35811e-05 -1.93625e-06      22.4917 
         700     0.333332  9.79812e-05 -4.39895e-06      22.4917 
         700         0.48  0.000153195 -8.20444e-06      22.4917 
         700     0.653331  0.000205201 -1.31284e-05      22.4917 
         700     0.853332  0.000245323 -1.87576e-05      22.4917 
         700         1.08  0.000268388 -2.49646e-05      22.4917 
         700      1.33333  0.000267246 -3.20633e-05      22.4917 
         700      1.61333  0.000242604  -4.0128e-05      22.4917 
         700         1.92  0.000209332 -4.85928e-05      22.4917 
         700      2.25333  0.000173859 -5.65581e-05      22.4917 
         700      2.61333  0.000136228 -6.35263e-05      22.4917 
         700            3  9.68395e-05 -6.91188e-05      22.4917 
         750            0           -0           -0        18.87 
         750     0.013333  0.000101767 -9.81211e-08        18.87 
         750     0.053333  0.000303019 -1.39942e-06        18.87 
         750         0.12   0.00061837 -5.80953e-06        18.87 
         750     0.213332  0.000962829 -1.37839e-05        18.87 
         750     0.333332   0.00121723 -2.31882e-05        18.87 
         750         0.48   0.00132205 -3.08598e-05        18.87 
         750     0.653331   0.00130702 -3.52164e-05      18.8701 
         750     0.853332   0.00122955 -3.70919e-05      18.8701 
         750         1.08   0.00111652 -3.84934e-05      18.8701 
         750      1.33333  0.000976905 -4.03915e-05      18.8701 
         750      1.61333  0.000830374   -4.212e-05        18.87 
         750         1.92  0.000684552 -4.28792e-05        18.87 
         750      2.25333  0.000529201 -4.24643e-05        18.87 
         750      2.61333  0.000363369 -4.11256e-05        18.87 
         750            3  0.000195051  -3.8901e-05        18.87 
         800            0            0            0      15.2449 
         800     0.013333  5.24637e-05  1.69898e-07      15.2449 
         800     0.053333  4.10613e-05  2.55274e-06      15.2449 
         800         0.12 -0.000108295  1.15448e-05      15.2449 
         800     0.213332 -0.000414407   3.0889e-05      15.2449 
         800     0.333332 -0.000769246  6.07699e-05      15.2449 
         800         0.48   -0.0010361  9.80724e-05      15.2449 
         800     0.653331  -0.00115712  0.000139517      15.2449 
         800     0.853332  -0.00114688  0.000184076      15.2449 
         800         1.08  -0.00103263   0.00023235      15.2449 
         800      1.33333  -0.00085496  0.000283572      15.2449 
         800      1.61333  -0.00068246  0.000334164      15.2449 
         800         1.92 -0.000546216  0.000380113      15.2449 
         800      2.25333 -0.000413451  0.000419462      15.2449 
         800      2.61333 -0.000270256  0.000450141      15.2449 
         800            3 -0.000125042  0.000469976      15.2449 
         850            0           -0           -0       11.618 
         850     0.013333 -4.91686e-05  -4.5808e-08       11.618 
         850     0.053333 -0.000259396 -7.58769e-07       11.618 
         850         0.12 -0.000484748 -3.90597e-06       11.618 
         850     0.213332 -0.000618628 -1.19921e-05       11.618 
         850     0.333332 -0.000632068 -2.69371e-05       11.618 
         850         0.48  -0.00057173 -4.90597e-05       11.618 
         850     0.653331   -0.0005045 -7.74889e-05       11.618 
         850     0.853332 -0.000474234 -0.000111216       11.618 
         850         1.08 -0.000490149 -0.000149198       11.618 
         850      1.33333 -0.000518307 -0.000189241       11.618 
         850      1.61333 -0.000501555 -0.000227811       11.618 
         850         1.92 -0.000429571 -0.000262301       11.618 
         850      2.25333 -0.000338039 -0.000291778       11.618 
         850      2.61333 -0.000243399 -0.000315199       11.618 
         850            3 -0.000145061   -0.0003312       11.618 
         900            0           -0           -0      7.98949 
         900     0.013333  1.18402e-06  3.51217e-09      7.98949 
         900     0.053333 -9.22555e-05  2.40992e-08      7.98949 
         900         0.12 -0.000210271 -1.05554e-07      7.98949 
         900     0.213332 -0.000301981 -1.07256e-06      7.98949 
         900     0.333332 -0.000332193 -4.02526e-06      7.98949 
         900         0.48 -0.000301899  -9.9185e-06      7.98949 
         900     0.653331 -0.000241745 -1.88583e-05      7.98949 
         900     0.853332 -0.000182331 -3.01272e-05      7.98949 
         900         1.08 -0.000134864 -4.27648e-05      7.98949 
         900      1.33333 -9.90546e-05 -5.62247e-05      7.98949 
         900      1.61333 -7.58711e-05 -7.04729e-05      7.98949 
         900         1.92 -6.02157e-05 -8.50953e-05      7.98949 
         900      2.25333 -4.14072e-05 -9.92609e-05       7.9895 
         900      2.61333 -1.75225e-05 -0.000111902       7.9895 
         900            3   7.7993e-06 -0.000122206       7.9895 
         950            0           -0           -0      4.35925 
         950     0.013333 -1.00402e-05 -8.03904e-08      4.35925 
         950     0.053333 -0.000103629 -1.25541e-06      4.35925 
         950         0.12 -0.000145538  -6.0296e-06      4.35925 
         950     0.213332 -6.32431e-05 -1.73336e-05      4.35925 
         950     0.333332  0.000121385 -3.67398e-05      4.35925 
         950         0.48  0.000319447 -6.34986e-05      4.35925 
         950     0.653331  0.000453316 -9.54376e-05      4.35925 
         950     0.853332  0.000499628 -0.000130619      4.35925 
         950         1.08  0.000475167 -0.000167937      4.35925 
         950      1.33333  0.000414063 -0.000206321      4.35925 
         950      1.61333  0.000352759 -0.000244057      4.35925 
         950         1.92  0.000305646 -0.000279386      4.35925 
         950      2.25333  0.000260225 -0.000310805      4.35925 
         950      2.61333   0.00020965  -0.00033695      4.35925 
         950            3  0.000154591 -0.000356292      4.35925 
        1000            0  7.12047e-20   6.6179e-25     0.727136 
        1000     0.013333  0.000116089 -8.89678e-08     0.727136 
        1000     0.053333  0.000349792  -1.2515e-06     0.727136 
        1000         0.12  0.000696692 -4.94117e-06     0.727136 
        1000     0.213332    0.0010622 -1.07904e-05     0.727136 
        1000     0.333332   0.00133217 -1.59472e-05     0.727136 
        1000         0.48   0.00145235 -1.71223e-05     0.727137 
        1000     0.653331    0.0014515 -1.30018e-05     0.727137 
        1000     0.853332   0.00138897 -4.80239e-06     0.727138 
        1000         1.08   0.00129208  4.76832e-06     0.727138 
        1000      1.33333   0.00115192  1.32575e-05     0.727138 
        1000      1.61333  0.000971972  2.00693e-05     0.727137 
        1000         1.92  0.000785472  2.63688e-05     0.727134 
        1000      2.25333  0.000600016   3.3059e-05     0.727129 
        1000      2.61333  0.000410537  4.00302e-05      0.72712 
        1000            3  0.000216351  4.68466e-05     0.727108 
