Variables = x, y, u, v, p

Zone, I=2080, F=POINT
         -50            0  1.92859e-19   4.7781e-24     0.586918 
         -50      0.00048   1.9251e-05  5.30551e-10     0.586918 
         -50     0.001922  6.85771e-05  2.51852e-09     0.586918 
         -50     0.004326  0.000126863  6.98062e-09     0.586918 
         -50      0.00769   0.00017144  1.51296e-08     0.586918 
         -50     0.012017  0.000190088  2.79223e-08     0.586918 
         -50     0.017304  0.000186889  4.57607e-08     0.586918 
         -50     0.023553  0.000178062  6.86123e-08     0.586918 
         -50     0.030763  0.000178879   9.6404e-08     0.586918 
         -50     0.038936  0.000190228  1.29524e-07     0.586918 
         -50     0.048069  0.000197657  1.68906e-07     0.586918 
         -50     0.058163  0.000191007  2.15573e-07     0.586918 
         -50     0.069219   0.00018914  2.70078e-07     0.586918 
         -50     0.081236  0.000198982  3.34376e-07     0.586918 
         -50     0.094215  0.000195206  4.09533e-07     0.586918 
         -50     0.108155  0.000196505  4.96499e-07     0.586919 
         -50     0.123056   0.00019645  5.96244e-07     0.586919 
         -50     0.138918  0.000196291    7.096e-07     0.586919 
         -50     0.155744  0.000196277  8.37901e-07     0.586919 
         -50     0.173529  0.000196047  9.82605e-07     0.586919 
         -50     0.192276  0.000195272   1.1451e-06     0.586919 
         -50     0.211984  0.000194204  1.32664e-06     0.586919 
         -50     0.232655  0.000193421  1.52936e-06     0.586919 
         -50     0.254285  0.000192063  1.75916e-06      0.58692 
         -50     0.276877  0.000190861  2.01595e-06      0.58692 
         -50     0.300431  0.000189515  2.28599e-06      0.58692 
         -50     0.324946  0.000188108  2.57026e-06      0.58692 
         -50     0.350424  0.000186702  2.88324e-06      0.58692 
         -50     0.376861  0.000185335  3.24724e-06      0.58692 
         -50      0.40426  0.000184029  3.68454e-06      0.58692 
         -50     0.432621    0.0001828  4.20765e-06      0.58692 
         -50     0.461945  0.000181661  4.80981e-06     0.586921 
         -50     0.492228  0.000180634  5.45757e-06     0.586921 
         -50     0.523472  0.000179748  6.08958e-06     0.586921 
         -50     0.555678  0.000179028   6.6257e-06     0.586921 
         -50     0.588845  0.000178461   6.9932e-06     0.586921 
         -50     0.622976  0.000178018  7.07235e-06     0.586921 
         -50     0.658066   0.00017772  7.07666e-06     0.586921 
         -50     0.694117  0.000177488   7.2423e-06     0.586921 
         -50      0.73113  0.000177318  7.54678e-06     0.586921 
         -50     0.769107  0.000177208  7.96472e-06     0.586921 
         -50     0.808042   0.00017716  8.46874e-06     0.586921 
         -50     0.847939  0.000177176  9.03087e-06     0.586921 
         -50     0.888797   0.00017726  9.62373e-06     0.586921 
         -50      0.93062  0.000177416  1.02221e-05     0.586921 
         -50       0.9734  0.000177647   1.0804e-05     0.586921 
         -50      1.01714  0.000177957  1.13528e-05     0.586921 
         -50      1.06185  0.000178344  1.18579e-05     0.586921 
         -50      1.10751  0.000178805  1.23158e-05     0.586921 
         -50      1.15414  0.000179336  1.27304e-05     0.586921 
         -50      1.20173  0.000179927  1.31126e-05     0.586921 
         -50      1.25028  0.000180566  1.34791e-05      0.58692 
         -50      1.29979  0.000181244  1.38494e-05      0.58692 
         -50      1.35026  0.000181954  1.42413e-05      0.58692 
         -50       1.4017  0.000182697  1.46643e-05      0.58692 
         -50      1.45409  0.000183492  1.51103e-05     0.586919 
         -50      1.50745  0.000184375  1.55362e-05     0.586919 
         -50      1.56176  0.000185007  1.57656e-05     0.586919 
         -50      1.61705  0.000185865  1.60672e-05     0.586918 
         -50      1.67329  0.000186832  1.64125e-05     0.586918 
         -50      1.73049  0.000187799  1.67731e-05     0.586917 
         -50      1.78865  0.000188671  1.71217e-05     0.586917 
         -50      1.84778  0.000189367  1.74323e-05     0.586916 
         -50      1.90786  0.000189821  1.76806e-05     0.586915 
         -50      1.96891  0.000189984  1.78451e-05     0.586915 
         -50      2.03092  0.000189822  1.79076e-05     0.586914 
         -50      2.09389  0.000189317  1.78535e-05     0.586913 
         -50      2.15782   0.00018847  1.76728e-05     0.586912 
         -50      2.22272  0.000187296  1.73605e-05     0.586911 
         -50      2.28857  0.000185825  1.69169e-05      0.58691 
         -50      2.35539  0.000184103  1.63482e-05     0.586909 
         -50      2.42317  0.000182187  1.56665e-05     0.586908 
         -50      2.49191  0.000180144  1.48902e-05     0.586907 
         -50      2.56161  0.000178051  1.40434e-05     0.586906 
         -50      2.63226  0.000175989  1.31559e-05     0.586905 
         -50      2.70389  0.000174039  1.22624e-05     0.586904 
         -50      2.77648  0.000172285  1.14015e-05     0.586902 
         -50      2.85002  0.000170801  1.06141e-05     0.586901 
         -50      2.92453  0.000169654  9.94169e-06     0.586899 
         -50            3  0.000168893  9.42361e-06     0.586898 
         -25            0           -0           -0     0.563287 
         -25      0.00048  1.39128e-05  1.45486e-10     0.563287 
         -25     0.001922  4.94888e-05  6.06457e-10     0.563287 
         -25     0.004326  9.12935e-05  1.38493e-09     0.563287 
         -25      0.00769  0.000122772  2.28289e-09     0.563287 
         -25     0.012017  0.000135036  2.70173e-09     0.563287 
         -25     0.017304  0.000131149  1.51178e-09     0.563287 
         -25     0.023553  0.000123072 -2.93165e-09     0.563287 
         -25     0.030763  0.000122078 -1.26354e-08     0.563287 
         -25     0.038936   0.00012891 -2.97821e-08     0.563287 
         -25     0.048069  0.000133079 -5.66393e-08     0.563287 
         -25     0.058163  0.000127236 -9.57066e-08     0.563287 
         -25     0.069219  0.000125283 -1.49819e-07     0.563287 
         -25     0.081236  0.000132357 -2.21242e-07     0.563287 
         -25     0.094215  0.000129967 -3.12521e-07     0.563287 
         -25     0.108155  0.000131832  -4.2618e-07     0.563287 
         -25     0.123056  0.000133257 -5.63899e-07     0.563287 
         -25     0.138918  0.000135146 -7.27133e-07     0.563287 
         -25     0.155744  0.000137647 -9.16807e-07     0.563287 
         -25     0.173529  0.000140442 -1.13316e-06     0.563287 
         -25     0.192276  0.000143221 -1.37594e-06     0.563287 
         -25     0.211984  0.000146086 -1.64434e-06     0.563287 
         -25     0.232655  0.000149375 -1.93721e-06     0.563287 
         -25     0.254285  0.000152362 -2.25349e-06     0.563287 
         -25     0.276877  0.000155497 -2.59141e-06     0.563287 
         -25     0.300431  0.000158476  -2.9472e-06     0.563287 
         -25     0.324946  0.000161283   -3.319e-06     0.563288 
         -25     0.350424  0.000163901 -3.70377e-06     0.563288 
         -25     0.376861   0.00016631 -4.09758e-06     0.563288 
         -25      0.40426  0.000168492 -4.49624e-06     0.563288 
         -25     0.432621  0.000170432 -4.89584e-06     0.563288 
         -25     0.461945  0.000172127 -5.29342e-06     0.563288 
         -25     0.492228  0.000173583 -5.68746e-06     0.563288 
         -25     0.523472  0.000174816 -6.07824e-06     0.563288 
         -25     0.555678  0.000175846 -6.46743e-06     0.563288 
         -25     0.588845  0.000176684 -6.85678e-06     0.563288 
         -25     0.622976  0.000177329 -7.22895e-06     0.563288 
         -25     0.658066  0.000177823  -7.5737e-06     0.563288 
         -25     0.694117  0.000178167 -7.91216e-06     0.563288 
         -25      0.73113  0.000178365 -8.24142e-06     0.563288 
         -25     0.769107  0.000178416 -8.55926e-06     0.563288 
         -25     0.808042   0.00017832 -8.86401e-06     0.563287 
         -25     0.847939   0.00017807 -9.15453e-06     0.563287 
         -25     0.888797  0.000177661 -9.42999e-06     0.563287 
         -25      0.93062  0.000177085  -9.6897e-06     0.563287 
         -25       0.9734  0.000176338 -9.93282e-06     0.563287 
         -25      1.01714  0.000175416 -1.01583e-05     0.563287 
         -25      1.06185   0.00017432 -1.03647e-05     0.563287 
         -25      1.10751  0.000173059 -1.05501e-05     0.563287 
         -25      1.15414  0.000171645 -1.07121e-05     0.563287 
         -25      1.20173  0.000170099 -1.08482e-05     0.563287 
         -25      1.25028  0.000168446 -1.09562e-05     0.563286 
         -25      1.29979  0.000166716 -1.10354e-05     0.563286 
         -25      1.35026  0.000164937 -1.10874e-05     0.563286 
         -25       1.4017  0.000163133 -1.11184e-05     0.563286 
         -25      1.45409  0.000161309 -1.11419e-05     0.563286 
         -25      1.50745  0.000159439 -1.11759e-05     0.563285 
         -25      1.56176   0.00015745 -1.09756e-05     0.563285 
         -25      1.61705  0.000155409 -1.08585e-05     0.563285 
         -25      1.67329  0.000153358 -1.07819e-05     0.563284 
         -25      1.73049  0.000151339 -1.07082e-05     0.563284 
         -25      1.78865  0.000149397 -1.06049e-05     0.563284 
         -25      1.84778  0.000147569 -1.04459e-05     0.563283 
         -25      1.90786  0.000145896 -1.02111e-05     0.563283 
         -25      1.96891   0.00014441 -9.88698e-06     0.563282 
         -25      2.03092  0.000143139 -9.46651e-06     0.563282 
         -25      2.09389  0.000142106 -8.94925e-06     0.563281 
         -25      2.15782  0.000141325 -8.34128e-06     0.563281 
         -25      2.22272  0.000140804  -7.6546e-06      0.56328 
         -25      2.28857  0.000140538  -6.9069e-06      0.56328 
         -25      2.35539  0.000140515 -6.12082e-06     0.563279 
         -25      2.42317  0.000140711 -5.32313e-06     0.563278 
         -25      2.49191  0.000141092 -4.54403e-06     0.563278 
         -25      2.56161  0.000141614 -3.81561e-06     0.563277 
         -25      2.63226  0.000142222 -3.17079e-06     0.563276 
         -25      2.70389  0.000142854  -2.6418e-06     0.563275 
         -25      2.77648  0.000143441 -2.25869e-06     0.563274 
         -25      2.85002  0.000143911 -2.04728e-06     0.563274 
         -25      2.92453  0.000144193  -2.0275e-06     0.563273 
         -25            3   0.00014422 -2.21129e-06     0.563272 
           0            0            0            0      0.54222 
           0      0.00048  6.25545e-05 -3.86841e-05     0.542243 
           0     0.001922  0.000218256 -0.000133568     0.542303 
           0     0.004326  0.000388154 -0.000232771     0.542379 
           0      0.00769  0.000490749 -0.000283958     0.542443 
           0     0.012017  0.000488809 -0.000265835     0.542474 
           0     0.017304  0.000410325 -0.000201514     0.542468 
           0     0.023553  0.000327636 -0.000142658     0.542438 
           0     0.030763  0.000301533 -0.000129737     0.542412 
           0     0.038936  0.000327273 -0.000154546     0.542413 
           0     0.048069  0.000336839 -0.000163455     0.542445 
           0     0.058163  0.000288762 -0.000123701     0.542478 
           0     0.069219   0.00027173 -0.000101376     0.542467 
           0     0.081236  0.000305075  -0.00012956     0.542449 
           0     0.094215   0.00028016 -0.000107015     0.542474 
           0     0.108155  0.000281103  -0.00010283     0.542482 
           0     0.123056  0.000276459 -9.77807e-05     0.542489 
           0     0.138918  0.000272646 -9.33435e-05     0.542495 
           0     0.155744  0.000271089 -8.97675e-05     0.542503 
           0     0.173529  0.000269986 -8.65459e-05     0.542512 
           0     0.192276  0.000267373 -8.31906e-05     0.542522 
           0     0.211984  0.000263907 -7.99107e-05     0.542531 
           0     0.232655  0.000262108  -7.7359e-05     0.542539 
           0     0.254285  0.000258868 -7.46577e-05     0.542549 
           0     0.276877  0.000256232 -7.22207e-05     0.542559 
           0     0.300431   0.00025327 -6.98907e-05     0.542569 
           0     0.324946  0.000250255 -6.76635e-05     0.542579 
           0     0.350424  0.000247245 -6.55527e-05      0.54259 
           0     0.376861   0.00024426 -6.35218e-05       0.5426 
           0      0.40426  0.000241326 -6.15818e-05     0.542611 
           0     0.432621  0.000238457 -5.97224e-05     0.542621 
           0     0.461945  0.000235659 -5.79279e-05     0.542632 
           0     0.492228  0.000232929 -5.61936e-05     0.542643 
           0     0.523472  0.000230241 -5.45338e-05     0.542654 
           0     0.555678  0.000227573 -5.29348e-05     0.542664 
           0     0.588845  0.000224885 -5.13836e-05     0.542675 
           0     0.622976  0.000222136 -4.98869e-05     0.542686 
           0     0.658066  0.000219295 -4.84789e-05     0.542697 
           0     0.694117  0.000216279 -4.70734e-05     0.542708 
           0      0.73113  0.000213083 -4.57452e-05     0.542719 
           0     0.769107  0.000209685 -4.44994e-05      0.54273 
           0     0.808042  0.000206061 -4.32903e-05     0.542741 
           0     0.847939  0.000202244 -4.21401e-05     0.542752 
           0     0.888797  0.000198207 -4.10139e-05     0.542763 
           0      0.93062     0.000194 -3.99406e-05     0.542774 
           0       0.9734  0.000189673 -3.89311e-05     0.542785 
           0      1.01714  0.000185278 -3.79777e-05     0.542796 
           0      1.06185  0.000180862 -3.70618e-05     0.542807 
           0      1.10751  0.000176467 -3.61671e-05     0.542818 
           0      1.15414  0.000172136  -3.5301e-05     0.542829 
           0      1.20173  0.000167915 -3.45274e-05     0.542839 
           0      1.25028  0.000163765  -3.3673e-05      0.54285 
           0      1.29979  0.000159692 -3.28666e-05     0.542861 
           0      1.35026  0.000155665 -3.20915e-05     0.542871 
           0       1.4017  0.000151636 -3.13389e-05     0.542881 
           0      1.45409  0.000147557 -3.06259e-05     0.542892 
           0      1.50745  0.000143379 -2.99602e-05     0.542902 
           0      1.56176  0.000139057 -2.92808e-05     0.542912 
           0      1.61705  0.000134575 -2.85478e-05     0.542922 
           0      1.67329   0.00012998 -2.80002e-05     0.542932 
           0      1.73049  0.000125297 -2.73697e-05     0.542941 
           0      1.78865   0.00012064 -2.67247e-05     0.542951 
           0      1.84778  0.000116116 -2.60965e-05     0.542961 
           0      1.90786  0.000111818 -2.54951e-05      0.54297 
           0      1.96891  0.000107809 -2.49235e-05     0.542979 
           0      2.03092  0.000104127 -2.43916e-05     0.542988 
           0      2.09389  0.000100776 -2.39044e-05     0.542997 
           0      2.15782  9.77261e-05 -2.33465e-05     0.543006 
           0      2.22272  9.49822e-05 -2.27955e-05     0.543015 
           0      2.28857  9.25798e-05 -2.22275e-05     0.543024 
           0      2.35539  9.05712e-05 -2.16311e-05     0.543032 
           0      2.42317   8.9012e-05 -2.09993e-05     0.543041 
           0      2.49191  8.79512e-05 -2.03184e-05     0.543049 
           0      2.56161  8.74213e-05 -1.95502e-05     0.543057 
           0      2.63226  8.74348e-05 -1.86088e-05     0.543065 
           0      2.70389  8.79783e-05 -1.74645e-05     0.543073 
           0      2.77648  8.90136e-05 -1.63028e-05      0.54308 
           0      2.85002  9.04444e-05 -1.49027e-05     0.543088 
           0      2.92453  9.21351e-05 -1.33511e-05     0.543095 
           0            3  9.39553e-05 -1.17179e-05     0.543102 
          20            0            0            0      0.52917 
          20      0.00048  1.14579e-05  8.38467e-11      0.52917 
          20     0.001922  4.09895e-05  3.03491e-10      0.52917 
          20     0.004326  7.64553e-05  5.51752e-10      0.52917 
          20      0.00769  0.000104809   6.3014e-10      0.52917 
          20     0.012017  0.000118995  2.63728e-10      0.52917 
          20     0.017304  0.000121296 -8.12008e-10      0.52917 
          20     0.023553   0.00012095 -2.67306e-09      0.52917 
          20     0.030763  0.000126631 -4.95918e-09      0.52917 
          20     0.038936  0.000138741 -6.63687e-09      0.52917 
          20     0.048069  0.000148863 -5.87536e-09      0.52917 
          20     0.058163  0.000151041 -1.09817e-10      0.52917 
          20     0.069219  0.000155984  1.38357e-08      0.52917 
          20     0.081236  0.000167539  4.00961e-08      0.52917 
          20     0.094215  0.000171051  8.31163e-08      0.52917 
          20     0.108155  0.000177151  1.47547e-07      0.52917 
          20     0.123056  0.000182061  2.38315e-07      0.52917 
          20     0.138918   0.00018644  3.60117e-07      0.52917 
          20     0.155744  0.000190394  5.17324e-07      0.52917 
          20     0.173529  0.000193698  7.13611e-07      0.52917 
          20     0.192276  0.000196173  9.51869e-07      0.52917 
          20     0.211984  0.000197993  1.23396e-06      0.52917 
          20     0.232655  0.000199534  1.56082e-06      0.52917 
          20     0.254285  0.000200354  1.93249e-06      0.52917 
          20     0.276877   0.00020093  2.34733e-06      0.52917 
          20     0.300431  0.000201144  2.80323e-06      0.52917 
          20     0.324946  0.000201093  3.29698e-06      0.52917 
          20     0.350424  0.000200848  3.82461e-06      0.52917 
          20     0.376861  0.000200461  4.38135e-06      0.52917 
          20      0.40426  0.000199959  4.96218e-06      0.52917 
          20     0.432621  0.000199353  5.56182e-06      0.52917 
          20     0.461945  0.000198641  6.17518e-06      0.52917 
          20     0.492228  0.000197818  6.79749e-06      0.52917 
          20     0.523472  0.000196881  7.42481e-06      0.52917 
          20     0.555678  0.000195832  8.05401e-06      0.52917 
          20     0.588845  0.000194672  8.68281e-06      0.52917 
          20     0.622976   0.00019336  9.31383e-06      0.52917 
          20     0.658066  0.000191953  9.93945e-06      0.52917 
          20     0.694117  0.000190478  1.05566e-05      0.52917 
          20      0.73113  0.000188889  1.11704e-05      0.52917 
          20     0.769107  0.000187142  1.17825e-05      0.52917 
          20     0.808042  0.000185195   1.2391e-05      0.52917 
          20     0.847939  0.000183008  1.29917e-05      0.52917 
          20     0.888797  0.000180553  1.35782e-05      0.52917 
          20      0.93062  0.000177811  1.41433e-05      0.52917 
          20       0.9734  0.000174773  1.46799e-05      0.52917 
          20      1.01714   0.00017145  1.51821e-05      0.52917 
          20      1.06185  0.000167865  1.56462e-05      0.52917 
          20      1.10751  0.000164057  1.60716e-05     0.529169 
          20      1.15414  0.000160081  1.64606e-05     0.529169 
          20      1.20173  0.000156001  1.68183e-05     0.529169 
          20      1.25028  0.000151885  1.71508e-05     0.529169 
          20      1.29979  0.000147791  1.74627e-05     0.529168 
          20      1.35026  0.000143758  1.77519e-05     0.529168 
          20       1.4017  0.000139782  1.80027e-05     0.529168 
          20      1.45409  0.000135784  1.81757e-05     0.529167 
          20      1.50745  0.000131602  1.82011e-05     0.529167 
          20      1.56176  0.000128022  1.84212e-05     0.529166 
          20      1.61705   0.00012423  1.85505e-05     0.529166 
          20      1.67329  0.000120307  1.86064e-05     0.529165 
          20      1.73049  0.000116326  1.86038e-05     0.529165 
          20      1.78865  0.000112353  1.85549e-05     0.529164 
          20      1.84778  0.000108447  1.84696e-05     0.529164 
          20      1.90786  0.000104663  1.83553e-05     0.529163 
          20      1.96891  0.000101045  1.82172e-05     0.529162 
          20      2.03092  9.76302e-05  1.80588e-05     0.529162 
          20      2.09389  9.44497e-05  1.78816e-05     0.529161 
          20      2.15782  9.15267e-05  1.76863e-05      0.52916 
          20      2.22272  8.88769e-05  1.74726e-05     0.529159 
          20      2.28857  8.65102e-05  1.72401e-05     0.529158 
          20      2.35539  8.44302e-05  1.69885e-05     0.529158 
          20      2.42317  8.26359e-05  1.67184e-05     0.529157 
          20      2.49191  8.11221e-05  1.64314e-05     0.529156 
          20      2.56161  7.98801e-05  1.61312e-05     0.529155 
          20      2.63226  7.88988e-05  1.58234e-05     0.529154 
          20      2.70389  7.81656e-05  1.55162e-05     0.529153 
          20      2.77648  7.76675e-05  1.52203e-05     0.529152 
          20      2.85002  7.73916e-05  1.49489e-05     0.529151 
          20      2.92453  7.73256e-05  1.47177e-05      0.52915 
          20            3  7.74583e-05  1.45439e-05     0.529149 
          40            0            0            0     0.515125 
          40      0.00048  1.01261e-05  6.57336e-11     0.515125 
          40     0.001922  3.60029e-05  6.83589e-10     0.515125 
          40     0.004326  6.63508e-05  3.08642e-09     0.515125 
          40      0.00769  8.90533e-05  9.23249e-09     0.515125 
          40     0.012017   9.7563e-05  2.16988e-08     0.515125 
          40     0.017304   9.4028e-05  4.35221e-08     0.515125 
          40     0.023553   8.7073e-05  7.80908e-08     0.515125 
          40     0.030763  8.48218e-05  1.28979e-07     0.515125 
          40     0.038936  8.77366e-05  1.99826e-07     0.515125 
          40     0.048069  8.81134e-05  2.94079e-07     0.515125 
          40     0.058163  8.05611e-05  4.14822e-07     0.515125 
          40     0.069219  7.51973e-05  5.64521e-07     0.515125 
          40     0.081236  7.57811e-05  7.44979e-07     0.515125 
          40     0.094215  6.88916e-05  9.57072e-07     0.515125 
          40     0.108155  6.46064e-05  1.20064e-06     0.515125 
          40     0.123056  5.96086e-05  1.47463e-06     0.515125 
          40     0.138918  5.46849e-05  1.77701e-06     0.515125 
          40     0.155744  5.00836e-05  2.10497e-06     0.515125 
          40     0.173529  4.57186e-05  2.45485e-06     0.515125 
          40     0.192276  4.15053e-05  2.82264e-06     0.515125 
          40     0.211984  3.76513e-05  3.20398e-06     0.515125 
          40     0.232655  3.45154e-05  3.59457e-06     0.515125 
          40     0.254285  3.16633e-05  3.99031e-06     0.515125 
          40     0.276877  2.94904e-05  4.38736e-06     0.515125 
          40     0.300431   2.7819e-05  4.78267e-06     0.515125 
          40     0.324946  2.66559e-05  5.17414e-06     0.515125 
          40     0.350424  2.59881e-05  5.56037e-06     0.515125 
          40     0.376861  2.57867e-05  5.94064e-06     0.515125 
          40      0.40426  2.60119e-05  6.31518e-06     0.515125 
          40     0.432621  2.66191e-05  6.68499e-06     0.515125 
          40     0.461945  2.75666e-05  7.05182e-06     0.515125 
          40     0.492228  2.88209e-05  7.41792e-06     0.515125 
          40     0.523472  3.03598e-05  7.78587e-06     0.515125 
          40     0.555678  3.21689e-05  8.15804e-06     0.515125 
          40     0.588845  3.42274e-05   8.5359e-06     0.515125 
          40     0.622976  3.64891e-05  8.91968e-06     0.515125 
          40     0.658066  3.89618e-05  9.31379e-06     0.515125 
          40     0.694117  4.16192e-05  9.71786e-06     0.515125 
          40      0.73113  4.44128e-05   1.0129e-05     0.515125 
          40     0.769107  4.72918e-05  1.05441e-05     0.515125 
          40     0.808042  5.02039e-05    1.096e-05     0.515125 
          40     0.847939   5.3099e-05  1.13731e-05     0.515125 
          40     0.888797  5.59303e-05  1.17799e-05     0.515125 
          40      0.93062  5.86572e-05   1.2177e-05     0.515125 
          40       0.9734  6.12464e-05  1.25607e-05     0.515125 
          40      1.01714   6.3676e-05  1.29274e-05     0.515125 
          40      1.06185  6.59351e-05  1.32737e-05     0.515125 
          40      1.10751  6.80265e-05  1.35965e-05     0.515125 
          40      1.15414  6.99656e-05   1.3893e-05     0.515125 
          40      1.20173  7.17795e-05  1.41608e-05     0.515125 
          40      1.25028   7.3504e-05  1.43983e-05     0.515125 
          40      1.29979  7.51787e-05  1.46048e-05     0.515126 
          40      1.35026  7.68384e-05  1.47805e-05     0.515126 
          40       1.4017  7.85012e-05  1.49271e-05     0.515126 
          40      1.45409  8.01531e-05  1.50483e-05     0.515126 
          40      1.50745   8.1739e-05  1.51496e-05     0.515126 
          40      1.56176  8.38923e-05   1.5221e-05     0.515126 
          40      1.61705  8.60713e-05   1.5251e-05     0.515126 
          40      1.67329  8.82781e-05  1.52436e-05     0.515126 
          40      1.73049  9.05129e-05  1.52026e-05     0.515126 
          40      1.78865  9.27735e-05  1.51319e-05     0.515127 
          40      1.84778  9.50552e-05   1.5035e-05     0.515127 
          40      1.90786  9.73507e-05  1.49151e-05     0.515127 
          40      1.96891   9.9651e-05  1.47754e-05     0.515127 
          40      2.03092  0.000101944  1.46189e-05     0.515127 
          40      2.09389  0.000104218  1.44479e-05     0.515127 
          40      2.15782  0.000106456  1.42649e-05     0.515128 
          40      2.22272  0.000108642  1.40718e-05     0.515128 
          40      2.28857  0.000110758  1.38703e-05     0.515128 
          40      2.35539  0.000112786  1.36616e-05     0.515128 
          40      2.42317  0.000114708  1.34468e-05     0.515128 
          40      2.49191  0.000116504  1.32267e-05     0.515128 
          40      2.56161  0.000118157  1.30018e-05     0.515129 
          40      2.63226   0.00011965  1.27722e-05     0.515129 
          40      2.70389  0.000120969  1.25382e-05     0.515129 
          40      2.77648  0.000122101  1.22995e-05     0.515129 
          40      2.85002  0.000123038   1.2056e-05     0.515129 
          40      2.92453  0.000123773  1.18075e-05     0.515129 
          40            3  0.000124306  1.15535e-05      0.51513 
          60            0           -0           -0      0.50157 
          60      0.00048  9.36421e-06  5.33785e-11      0.50157 
          60     0.001922  3.31323e-05  6.29791e-10      0.50157 
          60     0.004326  6.04752e-05  2.94179e-09      0.50157 
          60      0.00769  7.97743e-05  8.88848e-09      0.50157 
          60     0.012017  8.47779e-05  2.09073e-08      0.50157 
          60     0.017304   7.7616e-05   4.1756e-08      0.50157 
          60     0.023553  6.66577e-05   7.4327e-08      0.50157 
          60     0.030763  5.98038e-05  1.21403e-07      0.50157 
          60     0.038936  5.75937e-05  1.85469e-07      0.50157 
          60     0.048069  5.27222e-05  2.68428e-07      0.50157 
          60     0.058163  4.01109e-05  3.71444e-07      0.50157 
          60     0.069219     2.96e-05  4.94734e-07      0.50157 
          60     0.081236  2.49104e-05  6.37506e-07      0.50157 
          60     0.094215  1.32306e-05  7.97891e-07      0.50157 
          60     0.108155  4.34119e-06  9.72943e-07      0.50157 
          60     0.123056 -4.87597e-06   1.1587e-06      0.50157 
          60     0.138918  -1.3608e-05  1.35047e-06      0.50157 
          60     0.155744 -2.15789e-05  1.54301e-06      0.50157 
          60     0.173529  -2.8851e-05  1.73065e-06      0.50157 
          60     0.192276 -3.55053e-05  1.90761e-06      0.50157 
          60     0.211984 -4.13577e-05  2.06816e-06      0.50157 
          60     0.232655 -4.60933e-05  2.20712e-06      0.50157 
          60     0.254285 -5.01721e-05  2.32047e-06      0.50157 
          60     0.276877 -5.32658e-05  2.40326e-06      0.50157 
          60     0.300431 -5.56034e-05  2.45285e-06      0.50157 
          60     0.324946 -5.72385e-05  2.46831e-06      0.50157 
          60     0.350424 -5.82448e-05  2.44898e-06      0.50157 
          60     0.376861 -5.87087e-05  2.39477e-06      0.50157 
          60      0.40426 -5.87216e-05  2.30655e-06      0.50157 
          60     0.432621 -5.83703e-05  2.18643e-06      0.50157 
          60     0.461945 -5.77272e-05  2.03804e-06      0.50157 
          60     0.492228 -5.68425e-05  1.86652e-06      0.50157 
          60     0.523472 -5.57386e-05  1.67801e-06      0.50157 
          60     0.555678 -5.44118e-05  1.47844e-06      0.50157 
          60     0.588845  -5.2844e-05  1.27135e-06      0.50157 
          60     0.622976 -5.09957e-05  1.05952e-06      0.50157 
          60     0.658066 -4.88307e-05  8.62951e-07      0.50157 
          60     0.694117 -4.62906e-05  6.84841e-07      0.50157 
          60      0.73113 -4.32876e-05  5.27674e-07      0.50157 
          60     0.769107 -3.97691e-05  3.93912e-07      0.50157 
          60     0.808042 -3.57186e-05  2.85783e-07      0.50157 
          60     0.847939 -3.11535e-05  2.04942e-07      0.50157 
          60     0.888797 -2.61231e-05  1.52236e-07      0.50157 
          60      0.93062 -2.07033e-05    1.274e-07      0.50157 
          60       0.9734 -1.49921e-05  1.28817e-07      0.50157 
          60      1.01714  -9.0986e-06  1.53327e-07      0.50157 
          60      1.06185 -3.13625e-06  1.96172e-07     0.501571 
          60      1.10751  2.78848e-06   2.5111e-07     0.501571 
          60      1.15414  8.58588e-06  3.10766e-07     0.501571 
          60      1.20173   1.4191e-05  3.67299e-07     0.501571 
          60      1.25028  1.95737e-05   4.1353e-07     0.501571 
          60      1.29979  2.47416e-05  4.44574e-07     0.501571 