Variables = x, y, u, v, p

Zone, I=416, F=POINT
         -50            0            0            0     -11.6724 
         -50     0.013333 -0.000139868 -3.22834e-08     -11.6724 
         -50     0.053333 -0.000121538 -1.82599e-07     -11.6724 
         -50         0.12 -0.000107729 -5.31257e-07     -11.6724 
         -50     0.213332 -9.35648e-05 -1.08716e-06     -11.6724 
         -50     0.333332 -8.20121e-05 -1.62521e-06     -11.6724 
         -50         0.48 -7.38783e-05  -2.4558e-06     -11.6724 
         -50     0.653331 -7.07704e-05  -3.3644e-06     -11.6724 
         -50     0.853332 -7.33775e-05 -4.70186e-06     -11.6723 
         -50         1.08  -8.1385e-05 -5.43844e-06     -11.6722 
         -50      1.33333 -9.37191e-05 -6.71819e-06     -11.6721 
         -50      1.61333 -0.000109074 -7.89862e-06      -11.672 
         -50         1.92 -0.000118052 -9.02796e-06     -11.6718 
         -50      2.25333 -0.000122625 -9.46436e-06     -11.6715 
         -50      2.61333 -0.000127954 -1.10178e-05     -11.6712 
         -50            3  -0.00013473 -1.57387e-05     -11.6708 
         -25            0           -0           -0     -11.2083 
         -25     0.013333 -9.83023e-05 -3.77618e-10     -11.2083 
         -25     0.053333  -7.8115e-05  1.06785e-07     -11.2083 
         -25         0.12 -7.02366e-05  6.62622e-07     -11.2083 
         -25     0.213332 -7.53091e-05  2.06009e-06     -11.2083 
         -25     0.333332 -8.75036e-05   4.4384e-06     -11.2083 
         -25         0.48 -9.64859e-05  7.65074e-06     -11.2083 
         -25     0.653331 -9.80602e-05  1.13605e-05     -11.2082 
         -25     0.853332 -9.49122e-05  1.51673e-05     -11.2082 
         -25         1.08 -9.16929e-05   1.8616e-05     -11.2082 
         -25      1.33333 -8.86354e-05  2.12885e-05     -11.2082 
         -25      1.61333 -8.49267e-05  2.27659e-05     -11.2081 
         -25         1.92 -8.21728e-05  2.32166e-05      -11.208 
         -25      2.25333 -7.89803e-05  2.16448e-05     -11.2079 
         -25      2.61333 -8.36123e-05  1.59297e-05     -11.2078 
         -25            3 -9.71142e-05  7.51369e-06     -11.2077 
           0            0            0            0      -10.826 
           0     0.013333 -0.000282045  0.000165392     -10.8268 
           0     0.053333  -0.00018495   8.4961e-05     -10.8275 
           0         0.12 -0.000163413  5.65324e-05     -10.8283 
           0     0.213332 -0.000155717  4.40302e-05     -10.8291 
           0     0.333332 -0.000149729  3.66168e-05     -10.8299 
           0         0.48 -0.000142376  3.05313e-05     -10.8307 
           0     0.653331 -0.000135133  2.56808e-05     -10.8314 
           0     0.853332 -0.000125634   2.1857e-05     -10.8322 
           0         1.08 -0.000113354  1.88951e-05     -10.8329 
           0      1.33333 -0.000100732   1.6515e-05     -10.8336 
           0      1.61333 -8.73557e-05  1.45466e-05     -10.8343 
           0         1.92 -7.30341e-05  1.29779e-05     -10.8349 
           0      2.25333 -6.40886e-05  1.17299e-05     -10.8354 
           0      2.61333 -5.69211e-05  1.19147e-05      -10.836 
           0            3 -4.63193e-05  1.32102e-05     -10.8365 
          20            0 -0.000157379  4.11797e-05     -10.5942 
          20     0.013333 -0.000156881  4.12644e-05     -10.5942 
          20     0.053333 -0.000155531  4.14367e-05     -10.5942 
          20         0.12 -0.000153897  4.14389e-05     -10.5942 
          20     0.213332  -0.00015331  4.08281e-05     -10.5942 
          20     0.333332 -0.000155757   3.8927e-05     -10.5941 
          20         0.48 -0.000161829  3.53146e-05     -10.5941 
          20     0.653331 -0.000165502  2.99502e-05     -10.5941 
          20     0.853332 -0.000156749  2.37836e-05     -10.5941 
          20         1.08 -0.000134238   1.7842e-05      -10.594 
          20      1.33333 -0.000105153  1.24817e-05      -10.594 
          20      1.61333 -7.39447e-05  7.92921e-06     -10.5939 
          20         1.92 -4.60728e-05  4.24317e-06     -10.5938 
          20      2.25333 -2.57773e-05  1.67399e-06     -10.5937 
          20      2.61333 -1.27876e-05 -3.95977e-08     -10.5936 
          20            3 -1.26479e-05 -3.42239e-06     -10.5935 
          40            0            0            0     -10.3554 
          40     0.013333 -5.73137e-05 -6.85107e-08     -10.3554 
          40     0.053333  7.94769e-06 -8.83805e-07     -10.3554 
          40         0.12  8.50226e-05 -3.19548e-06     -10.3554 
          40     0.213332  0.000127676  -6.0334e-06     -10.3554 
          40     0.333332  0.000108668 -7.26112e-06     -10.3554 
          40         0.48  4.63101e-05 -6.38291e-06     -10.3554 
          40     0.653331 -2.18286e-05 -3.99205e-06     -10.3554 
          40     0.853332 -5.73519e-05  9.64178e-07     -10.3554 
          40         1.08 -7.60673e-05  8.19459e-06     -10.3554 
          40      1.33333 -9.83887e-05  1.58339e-05     -10.3554 
          40      1.61333  -0.00011595  2.32749e-05     -10.3553 
          40         1.92  -0.00012679  2.96294e-05     -10.3553 
          40      2.25333 -0.000128512    3.448e-05     -10.3553 
          40      2.61333 -0.000120827  3.76527e-05     -10.3552 
          40            3 -0.000109891  3.82569e-05     -10.3552 
          60            0            0            0     -10.1224 
          60     0.013333  6.88882e-05 -2.89105e-08     -10.1224 
          60     0.053333  0.000423594  5.51969e-08     -10.1224 
          60         0.12  0.000770873  3.11481e-06     -10.1224 
          60     0.213332  0.000915685  1.59864e-05     -10.1224 
          60     0.333332  0.000861515  4.42965e-05     -10.1224 
          60         0.48  0.000781232  8.76522e-05     -10.1224 
          60     0.653331  0.000791143  0.000139676     -10.1224 
          60     0.853332  0.000804703  0.000188308     -10.1224 
          60         1.08  0.000691217  0.000225357     -10.1224 
          60      1.33333  0.000483656  0.000251921     -10.1224 
          60      1.61333  0.000247211  0.000270474     -10.1224 
          60         1.92  1.45954e-05  0.000279039     -10.1224 
          60      2.25333 -0.000176684  0.000275297     -10.1224 
          60      2.61333 -0.000296701  0.000262487     -10.1224 
          60            3 -0.000340931  0.000242605     -10.1224 
          80            0           -0           -0      -9.8983 
          80     0.013333 -3.78769e-05  3.50763e-08      -9.8983 
          80     0.053333  4.87544e-05   5.6034e-07      -9.8983 
          80         0.12  0.000141788  2.55121e-06      -9.8983 
          80     0.213332  0.000227355  6.43968e-06      -9.8983 
          80     0.333332  0.000310712  1.16705e-05      -9.8983 
          80         0.48  0.000400611  1.83713e-05      -9.8983 
          80     0.653331  0.000509904  2.79209e-05      -9.8983 
          80     0.853332   0.00060271  3.81454e-05     -9.89829 
          80         1.08  0.000544973  4.01213e-05     -9.89829 
          80      1.33333  0.000356952  3.06776e-05     -9.89829 
          80      1.61333  0.000200755  1.80063e-05     -9.89829 
          80         1.92  6.74746e-05  5.61822e-06     -9.89828 
          80      2.25333 -5.31834e-05  -6.2374e-06     -9.89828 
          80      2.61333 -0.000148571 -1.66217e-05     -9.89828 
          80            3 -0.000207483 -2.55727e-05     -9.89827 
         100            0           -0           -0     -9.67901 
         100     0.013333 -0.000197305  2.38002e-08     -9.67901 
         100     0.053333  -0.00050626 -1.74153e-08     -9.67901 
         100         0.12 -0.000823076 -2.43302e-06     -9.67901 
         100     0.213332 -0.000962615 -1.31357e-05     -9.67901 
         100     0.333332 -0.000908238 -3.74622e-05     -9.67901 
         100         0.48 -0.000789617 -7.52388e-05     -9.67901 
         100     0.653331 -0.000700142 -0.000120829     -9.67901 
         100     0.853332 -0.000598542  -0.00016561     -9.67901 
         100         1.08 -0.000448066 -0.000204855     -9.67901 
         100      1.33333 -0.000316628 -0.000239081       -9.679 
         100      1.61333 -0.000198189  -0.00026667     -9.67899 
         100         1.92 -7.70399e-05 -0.000283677     -9.67897 
         100      2.25333  2.67631e-05 -0.000287777     -9.67895 
         100      2.61333  9.85624e-05 -0.000280409     -9.67893 
         100            3  0.000131109 -0.000263937      -9.6789 
         150            0            0            0     -9.14016 
         150     0.013333  -2.9271e-05  -8.1192e-08     -9.14016 
         150     0.053333   8.0697e-05  -9.6754e-07     -9.14016 
         150         0.12  0.000194793 -2.82025e-06     -9.14016 
         150     0.213332  0.000238703 -3.30248e-06     -9.14016 
         150     0.333332   0.00020181  2.29712e-07     -9.14016 
         150         0.48  0.000144508  6.98053e-06     -9.14016 
         150     0.653331  9.55486e-05  1.27348e-05     -9.14016 
         150     0.853332  1.98596e-05  1.29209e-05     -9.14016 
         150         1.08 -8.42465e-05   7.2188e-06     -9.14016 
         150      1.33333  -0.00015292 -5.84107e-07     -9.14016 
         150      1.61333 -0.000174062 -7.56812e-06     -9.14017 
         150         1.92 -0.000182201 -1.37665e-05     -9.14017 
         150      2.25333 -0.000183373 -1.93925e-05     -9.14018 
         150      2.61333 -0.000175391 -2.36436e-05     -9.14019 
         150            3 -0.000158202 -2.64513e-05      -9.1402 
         200            0           -0           -0     -8.60942 
         200     0.013333 -8.27317e-05  5.37032e-07     -8.60942 
         200     0.053333 -0.000247019  7.80003e-06     -8.60942 
         200         0.12 -0.000736661   3.3397e-05     -8.60942 
         200     0.213332  -0.00144349  8.33912e-05     -8.60942 
         200     0.333332  -0.00206079  0.000152778     -8.60942 
         200         0.48  -0.00239638  0.000232466     -8.60942 
         200     0.653331  -0.00244186  0.000318987     -8.60942 
         200     0.853332  -0.00221717  0.000415121     -8.60942 
         200         1.08  -0.00179256  0.000518897     -8.60942 
         200      1.33333  -0.00135502  0.000618211     -8.60941 
         200      1.61333 -0.000971527  0.000700123      -8.6094 
         200         1.92  -0.00057686  0.000758211     -8.60938 
         200      2.25333 -0.000192578  0.000787382     -8.60935 
         200      2.61333  0.000132848  0.000784743     -8.60931 
         200            3  0.000361138  0.000753684     -8.60927 
         250            0           -0           -0     -8.07994 
         250     0.013333  0.000167701   2.3292e-07     -8.07994 
         250     0.053333  0.000699084  3.90464e-06     -8.07994 
         250         0.12    0.0011099   2.0176e-05     -8.07994 
         250     0.213332   0.00110992  6.12169e-05     -8.07994 
         250     0.333332   0.00076644  0.000133881     -8.07994 
         250         0.48  0.000376589  0.000235154     -8.07994 
         250     0.653331  0.000159592  0.000356523     -8.07994 
         250     0.853332  0.000129209  0.000488607     -8.07994 
         250         1.08  0.000154753  0.000621204     -8.07994 
         250      1.33333  0.000125758  0.000743962     -8.07994 
         250      1.61333  5.31262e-05  0.000849107     -8.07995 
         250         1.92 -2.10425e-05  0.000929368     -8.07995 
         250      2.25333 -8.89689e-05  0.000976475     -8.07996 
         250      2.61333 -0.000147474  0.000986618     -8.07997 
         250            3 -0.000189697  0.000960826     -8.07999 
         300            0           -0           -0       -7.552 
         300     0.013333  0.000169743 -1.32674e-07       -7.552 
         300     0.053333   0.00081296 -1.55762e-06       -7.552 
         300         0.12   0.00161565 -4.27053e-06       -7.552 
         300     0.213332   0.00226389 -3.18504e-06       -7.552 
         300     0.333332   0.00258102  9.54234e-06       -7.552 
         300         0.48   0.00263537  3.82845e-05     -7.55199 
         300     0.653331   0.00259218   8.1354e-05     -7.55199 
         300     0.853332   0.00251447  0.000132044     -7.55199 
         300         1.08   0.00231911  0.000180992     -7.55199 
         300      1.33333    0.0019451  0.000220763       -7.552 
         300      1.61333   0.00147901  0.000251051     -7.55201 
         300         1.92  0.000990652  0.000273205     -7.55203 
         300      2.25333  0.000490273  0.000284998     -7.55205 
         300      2.61333  1.71055e-05  0.000285872     -7.55209 
         300            3 -0.000367852  0.000276035     -7.55213 
         350            0            0            0     -7.02623 
         350     0.013333  2.20173e-06 -1.05963e-07     -7.02623 
         350     0.053333  0.000209383 -1.41973e-06     -7.02623 
         350         0.12  0.000488493 -5.26327e-06     -7.02623 
         350     0.213332  0.000723982 -1.04419e-05     -7.02623 
         350     0.333332  0.000819404 -1.33088e-05     -7.02623 
         350         0.48  0.000785151 -1.10994e-05     -7.02623 
         350     0.653331  0.000694817 -4.32719e-06     -7.02623 
         350     0.853332  0.000589426  4.00302e-06     -7.02623 
         350         1.08  0.000463683  1.11326e-05     -7.02623 
         350      1.33333  0.000329248  1.69106e-05     -7.02623 
         350      1.61333  0.000212243  2.29908e-05     -7.02624 
         350         1.92   0.00010124  2.95816e-05     -7.02624 
         350      2.25333 -9.08574e-06  3.57831e-05     -7.02625 
         350      2.61333 -0.000110447   4.1188e-05     -7.02627 
         350            3 -0.000190451  4.53858e-05     -7.02628 
         400            0            0            0     -6.50121 
         400     0.013333 -0.000101026 -1.65813e-07     -6.50121 
         400     0.053333 -0.000137037  -2.4884e-06     -6.50121 
         400         0.12 -8.09067e-05 -1.11861e-05     -6.50121 
         400     0.213332  9.01775e-05 -2.95656e-05     -6.50121 
         400     0.333332  0.000285671 -5.73041e-05     -6.50121 
         400         0.48  0.000408756 -9.14581e-05     -6.50121 
         400     0.653331  0.000429373 -0.000129778     -6.50121 
         400     0.853332  0.000360603 -0.000171861     -6.50121 
         400         1.08  0.000237226 -0.000216804     -6.50121 
         400      1.33333  0.000124781 -0.000260897     -6.50121 
         400      1.61333  6.02184e-05 -0.000299613     -6.50121 
         400         1.92   1.0165e-05 -0.000330636     -6.50121 
         400      2.25333 -4.03237e-05 -0.000351944     -6.50122 
         400      2.61333 -8.75567e-05 -0.000361714     -6.50122 
         400            3  -0.00012399 -0.000359098     -6.50123 
         450            0            0            0     -5.97742 
         450     0.013333 -0.000183074 -1.33792e-07     -5.97742 
         450     0.053333 -0.000427442 -2.22143e-06     -5.97742 
         450         0.12 -0.000593416 -1.13659e-05     -5.97742 
         450     0.213332  -0.00052609 -3.41862e-05     -5.97742 
         450     0.333332 -0.000278924  -7.4075e-05     -5.97742 
         450         0.48 -3.52197e-05 -0.000128575     -5.97742 
         450     0.653331  7.54506e-05 -0.000192131     -5.97742 
         450     0.853332  5.47733e-05 -0.000259463     -5.97742 
         450         1.08 -4.38557e-06 -0.000325368     -5.97742 
         450      1.33333 -1.51751e-05 -0.000384864     -5.97742 
         450      1.61333  1.09876e-05 -0.000435628     -5.97742 
         450         1.92   2.4512e-05 -0.000476776     -5.97742 
         450      2.25333  2.58302e-05 -0.000505496     -5.97741 
         450      2.61333  2.14349e-05 -0.000519045     -5.97741 
         450            3  1.26631e-05 -0.000515933      -5.9774 
         500            0           -0           -0     -5.45562 
         500     0.013333 -0.000217422  3.63258e-07     -5.45562 
         500     0.053333 -0.000694659   5.1298e-06     -5.45562 
         500         0.12  -0.00148168  2.09861e-05     -5.45562 
         500     0.213332  -0.00233549   4.9118e-05     -5.45562 
         500     0.333332  -0.00294153  8.24532e-05     -5.45562 
         500         0.48   -0.0031843  0.000112428     -5.45563 
         500     0.653331  -0.00316681  0.000136985     -5.45563 
         500     0.853332  -0.00298992  0.000161401     -5.45563 
         500         1.08   -0.0026496  0.000192567     -5.45563 
         500      1.33333  -0.00218359  0.000230756     -5.45562 
         500      1.61333   -0.0017236  0.000268623     -5.45562 
         500         1.92  -0.00129492  0.000300187      -5.4556 
         500      2.25333 -0.000852108  0.000323966     -5.45558 
         500      2.61333 -0.000399972  0.000338419     -5.45554 
         500            3  1.59862e-05  0.000342192      -5.4555 
         550            0            0            0     -4.93318 
         550     0.013333  0.000243556  1.24937e-07     -4.93318 
         550     0.053333  0.000999802  2.35839e-06     -4.93318 
         550         0.12   0.00173703  1.38068e-05     -4.93318 
         550     0.213332   0.00202984  4.65842e-05     -4.93318 
         550     0.333332    0.0018064  0.000110743     -4.93318 
         550         0.48   0.00135525  0.000206831     -4.93318 
         550     0.653331   0.00100448  0.000326997     -4.93317 
         550     0.853332  0.000871092  0.000460924     -4.93317 
         550         1.08  0.000846437  0.000597669     -4.93317 
         550      1.33333   0.00074737  0.000726156     -4.93318 
         550      1.61333  0.000540035  0.000839743     -4.93318 
         550         1.92  0.000331312  0.000936801     -4.93319 
         550      2.25333  0.000137725   0.00101294      -4.9332 
         550      2.61333 -4.63904e-05   0.00106198     -4.93322 
         550            3  -0.00021299   0.00107907     -4.93324 
         600            0            0            0     -4.41454 
         600     0.013333 -0.000431582 -2.46708e-07     -4.41454 
         600     0.053333  -0.00129356 -4.10176e-06     -4.41454 
         600         0.12  -0.00213229 -2.11625e-05     -4.41454 
         600     0.213332  -0.00248175 -6.48804e-05     -4.41454 
         600     0.333332  -0.00227905 -0.000144912     -4.41454 
         600         0.48  -0.00182027 -0.000261487     -4.41454 
         600     0.653331  -0.00144425 -0.000408104     -4.41454 
         600     0.853332  -0.00131255 -0.000577196     -4.41454 
         600         1.08  -0.00137354 -0.000760068     -4.41454 
         600      1.33333  -0.00141337 -0.000943627     -4.41454 
         600      1.61333  -0.00127256  -0.00111383     -4.41454 
         600         1.92  -0.00102622  -0.00126298     -4.41453 
         600      2.25333 -0.000755962  -0.00138485     -4.41452 
         600      2.61333  -0.00048242  -0.00147122     -4.41451 
         600            3 -0.000211117  -0.00151469     -4.41449 
         650            0            0            0     -3.89519 
         650     0.013333  6.37524e-05 -1.04866e-07     -3.89519 
         650     0.053333  0.000448753 -1.47033e-06     -3.89519 
         650         0.12   0.00100832 -5.95866e-06     -3.89519 
         650     0.213332   0.00159944 -1.37242e-05     -3.89519 
         650     0.333332   0.00205892  -2.2125e-05     -3.89519 
         650         0.48    0.0023071 -2.72069e-05     -3.89519 
         650     0.653331   0.00237672 -2.61835e-05     -3.89519 
         650     0.853332   0.00234972 -1.85792e-05     -3.89519 
         650         1.08   0.00227476 -6.03168e-06     -3.89519 
         650      1.33333   0.00213076   8.0359e-06     -3.89519 
         650      1.61333   0.00187585   1.9688e-05     -3.89519 
         650         1.92   0.00153983  2.78352e-05      -3.8952 
         650      2.25333   0.00116433  3.35862e-05     -3.89521 
         650      2.61333  0.000765935  3.71856e-05     -3.89522 
         650            3  0.000360798  3.85224e-05     -3.89524 
         700            0            0            0     -3.37876 
         700     0.013333   2.1362e-05  1.50422e-07     -3.37876 
         700     0.053333  0.000217156  2.29868e-06     -3.37876 
         700         0.12  0.000350703  1.06537e-05     -3.37876 
         700     0.213332  0.000325701  2.93729e-05     -3.37876 
         700     0.333332  0.000174563   5.9895e-05     -3.37876 
         700         0.48 -6.99455e-07  0.000100892     -3.37876 
         700     0.653331 -0.000120207   0.00015077     -3.37876 
         700     0.853332 -0.000140873  0.000209376     -3.37876 
         700         1.08 -5.27674e-05   0.00027649     -3.37876 
         700      1.33333  7.73586e-05  0.000348312     -3.37876 
         700      1.61333  0.000143507  0.000417956     -3.37876 
         700         1.92  0.000139526  0.000480691     -3.37876 
         700      2.25333  0.000116552  0.000534282     -3.37875 
         700      2.61333  9.23165e-05   0.00057577     -3.37875 
         700            3  6.23138e-05   0.00060198     -3.37875 
         750            0  2.90062e-20   -4.298e-27     -2.86256 
         750     0.013333   0.00018801  5.95382e-08     -2.86256 
         750     0.053333  0.000824806  1.25921e-06     -2.86256 
         750         0.12   0.00147823  8.20311e-06     -2.86256 
         750     0.213332   0.00177023  3.01966e-05     -2.86256 
         750     0.333332    0.0015702  7.69318e-05     -2.86256 
         750         0.48   0.00108366  0.000151392     -2.86256 
         750     0.653331  0.000626431   0.00024793     -2.86256 
         750     0.853332  0.000356378  0.000356649     -2.86256 
         750         1.08  0.000217018  0.000467723     -2.86256 
         750      1.33333  8.69781e-05  0.000574275     -2.86256 
         750      1.61333 -4.77146e-05  0.000674363     -2.86256 
         750         1.92 -0.000137495  0.000768202     -2.86256 
         750      2.25333 -0.000201806  0.000851043     -2.86257 
         750      2.61333 -0.000257966  0.000917394     -2.86259 
         750            3 -0.000303754  0.000962172      -2.8626 
         800            0            0            0     -2.35042 
         800     0.013333 -0.000567176  3.68034e-07     -2.35042 
         800     0.053333  -0.00197576   4.9376e-06     -2.35042 
         800         0.12  -0.00394738  1.83279e-05     -2.35042 
         800     0.213332  -0.00582289  3.60362e-05     -2.35042 
         800     0.333332  -0.00699718  4.31696e-05     -2.35042 
         800         0.48  -0.00734192  2.52095e-05     -2.35042 
         800     0.653331  -0.00717929 -2.12601e-05     -2.35042 
         800     0.853332  -0.00686233  -8.7844e-05     -2.35043 
         800         1.08  -0.00645903 -0.000159544     -2.35043 
         800      1.33333  -0.00583405 -0.000222795     -2.35043 
         800      1.61333  -0.00498045 -0.000273484     -2.35042 
         800         1.92  -0.00408004 -0.000317016      -2.3504 
         800      2.25333  -0.00315584  -0.00035627     -2.35037 
         800      2.61333  -0.00218256 -0.000388751     -2.35032 
         800            3  -0.00117776  -0.00041127     -2.35026 
         850            0           -0           -0     -1.83456 
         850     0.013333 -8.98725e-05 -5.14014e-07     -1.83456 
         850     0.053333  1.33639e-05 -7.64674e-06     -1.83456 
         850         0.12   0.00051665 -3.41061e-05     -1.83456 
         850     0.213332   0.00144114 -8.98686e-05     -1.83456 
         850     0.333332    0.0024527  -0.00017429     -1.83456 
         850         0.48    0.0031779 -0.000278045     -1.83456 
         850     0.653331   0.00348918 -0.000392504     -1.83456 
         850     0.853332   0.00344894 -0.000516153     -1.83456 
         850         1.08   0.00311753  -0.00065269     -1.83455 
         850      1.33333   0.00256282 -0.000802526     -1.83456 
         850      1.61333    0.0019724 -0.000956393     -1.83456 
         850         1.92   0.00152203  -0.00110032     -1.83457 
         850      2.25333   0.00112951   -0.0012257     -1.83458 
         850      2.61333  0.000721638  -0.00132663      -1.8346 
         850            3   0.00030103  -0.00139716     -1.83463 
         900            0            0            0     -1.32376 
         900     0.013333  0.000174824  2.24064e-07     -1.32376 
         900     0.053333  0.000737028  3.61254e-06     -1.32376 
         900         0.12    0.0012167  1.80134e-05     -1.32376 
         900     0.213332   0.00129358  5.36544e-05     -1.32376 
         900     0.333332  0.000958925  0.000117184     -1.32376 
         900         0.48  0.000475325  0.000207592     -1.32376 
         900     0.653331  0.000116424  0.000318601     -1.32376 
         900     0.853332 -1.32005e-06  0.000444036     -1.32376 
         900         1.08  9.05125e-05   0.00057926     -1.32376 
         900      1.33333  0.000253446  0.000717881     -1.32376 
         900      1.61333  0.000321081  0.000850356     -1.32376 
         900         1.92  0.000259515  0.000969828     -1.32376 
         900      2.25333    0.0001695   0.00107279     -1.32376 
         900      2.61333  9.32342e-05   0.00115549     -1.32377 
         900            3  1.86923e-05   0.00121272     -1.32377 
         950            0            0            0    -0.814691 
         950     0.013333 -0.000281374   1.9344e-07    -0.814691 
         950     0.053333 -0.000898228  2.67488e-06    -0.814691 
         950         0.12  -0.00180985  1.05615e-05    -0.814691 
         950     0.213332  -0.00274691  2.33095e-05    -0.814691 
         950     0.333332   -0.0034197  3.53058e-05    -0.814692 
         950         0.48  -0.00371563  3.98784e-05    -0.814692 
         950     0.653331  -0.00373588  3.42649e-05    -0.814693 
         950     0.853332  -0.00363786  2.08113e-05    -0.814695 
         950         1.08  -0.00347885  5.21422e-06    -0.814695 
         950      1.33333  -0.00321058 -6.51558e-06    -0.814695 
         950      1.61333  -0.00280959 -1.15972e-05    -0.814692 
         950         1.92  -0.00235504 -1.23407e-05    -0.814685 
         950      2.25333  -0.00189248 -1.22285e-05    -0.814672 
         950      2.61333    -0.001414 -1.16899e-05    -0.814653 
         950            3  -0.00090827 -1.02659e-05    -0.814625 
        1000            0 -1.17807e-19 -4.58899e-25    -0.304951 
        1000     0.013333 -0.000175299 -1.13072e-07    -0.304951 
        1000     0.053333 -0.000422111  -1.7414e-06    -0.304951 
        1000         0.12  -0.00065782 -8.25583e-06    -0.304951 
        1000     0.213332 -0.000754342 -2.33995e-05    -0.304951 
        1000     0.333332 -0.000704939 -4.90438e-05    -0.304951 
        1000         0.48  -0.00058965 -8.45291e-05    -0.304951 
        1000     0.653331 -0.000491702 -0.000128295    -0.304951 
        1000     0.853332 -0.000460636 -0.000179712    -0.304951 
        1000         1.08 -0.000518069 -0.000238815    -0.304951 
        1000      1.33333 -0.000633189 -0.000303764    -0.304951 
        1000      1.61333 -0.000710484 -0.000369309    -0.304951 
        1000         1.92 -0.000682161 -0.000429687     -0.30495 
        1000      2.25333 -0.000602009  -0.00048297     -0.30495 
        1000      2.61333 -0.000509978 -0.000527232     -0.30495 
        1000            3 -0.000409857 -0.000560176    -0.304949 
