Variables = x, y, u, v, p

Zone, I=416, F=POINT
         -50            0            0            0     -8.98645 
         -50     0.013333 -0.000260998 -3.39416e-08     -8.98645 
         -50     0.053333 -0.000230746 -2.94459e-07     -8.98645 
         -50         0.12 -0.000212238 -1.03885e-06     -8.98645 
         -50     0.213332 -0.000193417 -2.37874e-06     -8.98645 
         -50     0.333332 -0.000176367 -4.13916e-06     -8.98645 
         -50         0.48 -0.000165261 -6.67484e-06     -8.98644 
         -50     0.653331 -0.000163814 -9.68672e-06     -8.98643 
         -50     0.853332 -0.000171757 -1.26263e-05     -8.98641 
         -50         1.08 -0.000184845 -1.57781e-05     -8.98639 
         -50      1.33333 -0.000202272 -1.86371e-05     -8.98635 
         -50      1.61333 -0.000222706 -2.05521e-05      -8.9863 
         -50         1.92 -0.000243095 -2.35332e-05     -8.98624 
         -50      2.25333 -0.000258006 -2.36711e-05     -8.98616 
         -50      2.61333 -0.000262966 -2.14775e-05     -8.98605 
         -50            3 -0.000261625  -2.1291e-05     -8.98592 
         -25            0           -0           -0     -8.71197 
         -25     0.013333 -0.000224185 -2.02405e-09     -8.71197 
         -25     0.053333 -0.000208277  4.35741e-08     -8.71197 
         -25         0.12 -0.000212883  2.42551e-07     -8.71197 
         -25     0.213332 -0.000222626    6.161e-07     -8.71197 
         -25     0.333332   -0.0002302  1.06873e-06     -8.71197 
         -25         0.48 -0.000233842  1.41881e-06     -8.71197 
         -25     0.653331 -0.000233897  1.70544e-06     -8.71197 
         -25     0.853332 -0.000229874  1.94526e-06     -8.71196 
         -25         1.08 -0.000221965   2.2386e-06     -8.71196 
         -25      1.33333 -0.000211918  2.40939e-06     -8.71195 
         -25      1.61333 -0.000202369  2.49682e-06     -8.71193 
         -25         1.92 -0.000196035  1.89638e-06     -8.71192 
         -25      2.25333 -0.000188142  2.00044e-06     -8.71189 
         -25      2.61333 -0.000184008  2.27498e-07     -8.71186 
         -25            3 -0.000190123 -6.63851e-06     -8.71183 
           0            0            0            0      -8.4527 
           0     0.013333 -0.000671385  0.000365087     -8.45343 
           0     0.053333 -0.000389343  0.000189436     -8.45386 
           0         0.12 -0.000316867  0.000118488     -8.45436 
           0     0.213332 -0.000292656  9.09219e-05     -8.45488 
           0     0.333332 -0.000280439  7.34588e-05     -8.45541 
           0         0.48 -0.000270361  6.06356e-05     -8.45593 
           0     0.653331 -0.000262582  5.08262e-05     -8.45644 
           0     0.853332 -0.000254429  4.30615e-05     -8.45692 
           0         1.08 -0.000243691  3.69668e-05     -8.45739 
           0      1.33333 -0.000230649   3.1923e-05     -8.45784 
           0      1.61333 -0.000215527  2.77606e-05     -8.45826 
           0         1.92 -0.000196956  2.44634e-05     -8.45866 
           0      2.25333 -0.000177943  2.19084e-05     -8.45904 
           0      2.61333 -0.000161707  2.02036e-05     -8.45939 
           0            3 -0.000150811  2.04724e-05     -8.45973 
          20            0 -0.000313358  0.000109603     -8.27603 
          20     0.013333 -0.000314788  0.000110372     -8.27603 
          20     0.053333 -0.000319486   0.00011248     -8.27603 
          20         0.12 -0.000328783  0.000115328     -8.27603 
          20     0.213332 -0.000345297  0.000118202     -8.27603 
          20     0.333332 -0.000374276  0.000120179     -8.27603 
          20         0.48 -0.000390043  0.000121313     -8.27602 
          20     0.653331 -0.000382075  0.000121693     -8.27602 
          20     0.853332  -0.00035174  0.000121487     -8.27602 
          20         1.08 -0.000306941  0.000120364     -8.27602 
          20      1.33333 -0.000258104  0.000117385     -8.27601 
          20      1.61333 -0.000211704  0.000111617       -8.276 
          20         1.92  -0.00017131  0.000103629     -8.27599 
          20      2.25333 -0.000142083  9.35066e-05     -8.27598 
          20      2.61333 -0.000127972  8.33337e-05     -8.27596 
          20            3 -0.000126359  7.19471e-05     -8.27594 
          40            0           -0           -0     -8.09407 
          40     0.013333 -0.000336802 -1.90125e-07     -8.09407 
          40     0.053333 -0.000474672 -3.40815e-06     -8.09408 
          40         0.12 -0.000386798 -2.51584e-05     -8.09408 
          40     0.213332 -0.000164626 -0.000107367     -8.09407 
          40     0.333332  -5.5705e-05 -0.000289868     -8.09406 
          40         0.48  0.000590168 -0.000492395     -8.09405 
          40     0.653331   0.00141544 -0.000672905     -8.09401 
          40     0.853332   0.00159762 -0.000882364     -8.09397 
          40         1.08   0.00133463   -0.0010998     -8.09391 
          40      1.33333  0.000958341  -0.00128174     -8.09383 
          40      1.61333  0.000555301  -0.00140154     -8.09373 
          40         1.92  0.000165659  -0.00144632     -8.09362 
          40      2.25333 -0.000158281   -0.0014165      -8.0935 
          40      2.61333 -0.000375372  -0.00132761     -8.09335 
          40            3 -0.000483745  -0.00120296     -8.09319 
          60            0           -0           -0     -7.90354 
          60     0.013333 -0.000582375 -8.52414e-07     -7.90354 
          60     0.053333  -0.00128719  -1.3267e-05     -7.90354 
          60         0.12  -0.00156885 -6.20847e-05     -7.90354 
          60     0.213332  -0.00111497 -0.000169719     -7.90354 
          60     0.333332 -0.000342364 -0.000339238     -7.90354 
          60         0.48  0.000136672 -0.000562065     -7.90354 
          60     0.653331  -3.6345e-05 -0.000834308     -7.90354 
          60     0.853332 -0.000643548  -0.00114273     -7.90354 
          60         1.08  -0.00102073  -0.00145073     -7.90354 
          60      1.33333 -0.000992959  -0.00171982     -7.90354 
          60      1.61333 -0.000771207  -0.00191842     -7.90353 
          60         1.92 -0.000525386  -0.00202183     -7.90352 
          60      2.25333 -0.000314261  -0.00202065     -7.90352 
          60      2.61333  -0.00015812  -0.00192993      -7.9035 
          60            3 -6.86838e-05  -0.00177773     -7.90349 
          80            0           -0           -0     -7.71821 
          80     0.013333 -0.000461177 -2.95437e-07     -7.71821 
          80     0.053333  -0.00101405  -4.8648e-06     -7.71821 
          80         0.12  -0.00146532 -2.43757e-05     -7.71821 
          80     0.213332  -0.00153899  -7.1144e-05     -7.71821 
          80     0.333332   -0.0013416 -0.000150038     -7.71821 
          80         0.48  -0.00116159 -0.000257301     -7.71821 
          80     0.653331  -0.00120824 -0.000386886     -7.71821 
          80     0.853332  -0.00146382 -0.000528468     -7.71821 
          80         1.08  -0.00159609  -0.00065984      -7.7182 
          80      1.33333   -0.0013589 -0.000756865      -7.7182 
          80      1.61333 -0.000956138 -0.000816404     -7.71819 
          80         1.92 -0.000566693  -0.00084041     -7.71817 
          80      2.25333 -0.000226559 -0.000825161     -7.71815 
          80      2.61333  3.02901e-05 -0.000777194     -7.71813 
          80            3  0.000173784 -0.000706698      -7.7181 
         100            0           -0           -0     -7.53436 
         100     0.013333 -0.000357668 -2.04708e-07     -7.53436 
         100     0.053333 -0.000665817 -3.46277e-06     -7.53436 
         100         0.12 -0.000871034 -1.77833e-05     -7.53436 
         100     0.213332 -0.000805056  -5.2549e-05     -7.53436 
         100     0.333332 -0.000588719 -0.000110489     -7.53436 
         100         0.48 -0.000441839 -0.000186084     -7.53436 
         100     0.653331 -0.000445589 -0.000270563     -7.53436 
         100     0.853332 -0.000483268 -0.000352424     -7.53436 
         100         1.08 -0.000394075 -0.000419768     -7.53436 
         100      1.33333  -0.00024254 -0.000468481     -7.53435 
         100      1.61333 -0.000162397 -0.000500841     -7.53435 
         100         1.92  -0.00011932 -0.000514287     -7.53434 
         100      2.25333 -8.62205e-05 -0.000504818     -7.53432 
         100      2.61333 -6.24152e-05 -0.000475115     -7.53431 
         100            3 -5.66553e-05 -0.000431469     -7.53429 
         150            0           -0           -0     -7.08133 
         150     0.013333 -3.60527e-05 -1.71698e-07     -7.08133 
         150     0.053333    0.0004403 -2.16864e-06     -7.08133 
         150         0.12   0.00103264 -7.21733e-06     -7.08133 
         150     0.213332   0.00151007 -1.17451e-05     -7.08133 
         150     0.333332   0.00173243 -8.97585e-06     -7.08133 
         150         0.48   0.00175075  5.24587e-06     -7.08133 
         150     0.653331    0.0016843  2.95672e-05     -7.08132 
         150     0.853332   0.00155796  5.74891e-05     -7.08132 
         150         1.08   0.00130927  8.17019e-05     -7.08133 
         150      1.33333  0.000949404  9.85386e-05     -7.08133 
         150      1.61333  0.000569471  0.000110402     -7.08134 
         150         1.92  0.000202251  0.000118264     -7.08136 
         150      2.25333 -0.000141967  0.000120003     -7.08138 
         150      2.61333 -0.000424085  0.000116825     -7.08142 
         150            3 -0.000602781  0.000109054     -7.08145 
         200            0            0            0     -6.63823 
         200     0.013333 -0.000127034 -3.85102e-07     -6.63823 
         200     0.053333  0.000174361 -5.47297e-06     -6.63823 
         200         0.12  0.000700285 -2.26285e-05     -6.63823 
         200     0.213332   0.00130089 -5.39133e-05     -6.63823 
         200     0.333332   0.00174017 -9.34399e-05     -6.63823 
         200         0.48   0.00192827 -0.000134346     -6.63823 
         200     0.653331   0.00190821 -0.000175761     -6.63823 
         200     0.853332   0.00170973 -0.000221639     -6.63823 
         200         1.08   0.00137219 -0.000272235     -6.63823 
         200      1.33333   0.00100217 -0.000321764     -6.63823 
         200      1.61333  0.000648429  -0.00036331     -6.63824 
         200         1.92  0.000286123 -0.000392939     -6.63826 
         200      2.25333 -6.46254e-05 -0.000408469     -6.63829 
         200      2.61333 -0.000361342 -0.000407691     -6.63832 
         200            3 -0.000566825 -0.000392488     -6.63835 
         250            0            0            0      -6.2035 
         250     0.013333  -4.6169e-05 -1.34449e-07      -6.2035 
         250     0.053333  0.000403339  -1.7195e-06      -6.2035 
         250         0.12  0.000971661 -5.84441e-06      -6.2035 
         250     0.213332   0.00144984 -9.79317e-06      -6.2035 
         250     0.333332   0.00169117 -7.77566e-06      -6.2035 
         250         0.48   0.00172079  4.62405e-06      -6.2035 
         250     0.653331   0.00165868  2.76607e-05      -6.2035 
         250     0.853332   0.00156748  5.72574e-05      -6.2035 
         250         1.08   0.00139696  8.66755e-05      -6.2035 
         250      1.33333   0.00111115  0.000110654      -6.2035 
         250      1.61333  0.000777354  0.000129786     -6.20351 
         250         1.92  0.000430693  0.000144955     -6.20352 
         250      2.25333  8.39797e-05  0.000154329     -6.20354 
         250      2.61333 -0.000227642  0.000157835     -6.20357 
         250            3 -0.000462159  0.000155498     -6.20359 
         300            0            0            0     -5.77599 
         300     0.013333   -0.0001912 -5.24975e-07     -5.77599 
         300     0.053333  -8.4985e-06 -7.73216e-06     -5.77599 
         300         0.12  0.000494082 -3.37018e-05     -5.77599 
         300     0.213332   0.00122244 -8.54168e-05     -5.77599 
         300     0.333332   0.00182743 -0.000157473     -5.77599 
         300         0.48   0.00207401 -0.000238516     -5.77599 
         300     0.653331   0.00197958 -0.000322706     -5.77598 
         300     0.853332   0.00165184 -0.000410756     -5.77598 
         300         1.08    0.0012274  -0.00050007     -5.77598 
         300      1.33333  0.000864176 -0.000581366     -5.77599 
         300      1.61333  0.000575693 -0.000646804       -5.776 
         300         1.92   0.00027903 -0.000693035     -5.77601 
         300      2.25333 -2.33987e-05 -0.000716271     -5.77603 
         300      2.61333 -0.000297947 -0.000713624     -5.77606 
         300            3 -0.000509384 -0.000685918      -5.7761 
         350            0            0            0     -5.35419 
         350     0.013333 -0.000438015 -6.78719e-07     -5.35419 
         350     0.053333 -0.000838429 -1.03537e-05     -5.35419 
         350         0.12 -0.000880238 -4.76384e-05     -5.35419 
         350     0.213332 -0.000329407 -0.000129358     -5.35419 
         350     0.333332  0.000503674 -0.000257936     -5.35419 
         350         0.48   0.00116157 -0.000423116     -5.35419 
         350     0.653331   0.00141243 -0.000614833     -5.35419 
         350     0.853332   0.00124053 -0.000828587     -5.35418 
         350         1.08  0.000808089  -0.00105576     -5.35418 
         350      1.33333  0.000434809  -0.00127584     -5.35419 
         350      1.61333  0.000249188   -0.0014681     -5.35419 
         350         1.92  9.64306e-05  -0.00162164      -5.3542 
         350      2.25333 -6.54036e-05  -0.00172522     -5.35421 
         350      2.61333 -0.000217612  -0.00176951     -5.35422 
         350            3 -0.000337807  -0.00175169     -5.35424 
         400            0 -2.32262e-19 -2.42554e-26     -4.93873 
         400     0.013333 -0.000200921 -1.96249e-07     -4.93873 
         400     0.053333 -0.000123975 -2.93983e-06     -4.93873 
         400         0.12  7.58503e-05 -1.30602e-05     -4.93873 
         400     0.213332  0.000369054 -3.35219e-05     -4.93873 
         400     0.333332  0.000599462 -6.18285e-05     -4.93873 
         400         0.48  0.000654729 -9.24607e-05     -4.93873 
         400     0.653331  0.000548203 -0.000122446     -4.93873 
         400     0.853332  0.000346402 -0.000152124     -4.93873 
         400         1.08  0.000135077 -0.000180067     -4.93873 
         400      1.33333   1.3974e-05 -0.000200906     -4.93873 
         400      1.61333 -2.51369e-05 -0.000211672     -4.93873 
         400         1.92 -7.44579e-05 -0.000214513     -4.93874 
         400      2.25333 -0.000137796 -0.000209908     -4.93874 
         400      2.61333 -0.000199917 -0.000197997     -4.93875 
         400            3  -0.00025153  -0.00017943     -4.93875 
         450            0           -0           -0     -4.53022 
         450     0.013333 -0.000674014 -1.98125e-07     -4.53022 
         450     0.053333   -0.0017921 -3.70776e-06     -4.53022 
         450         0.12  -0.00289853 -2.15438e-05     -4.53022 
         450     0.213332  -0.00333793  -7.2326e-05     -4.53022 
         450     0.333332  -0.00300521 -0.000171506     -4.53022 
         450         0.48  -0.00232934 -0.000320218     -4.53023 
         450     0.653331  -0.00178964  -0.00050698     -4.53023 
         450     0.853332  -0.00155321 -0.000716345     -4.53023 
         450         1.08  -0.00146939 -0.000931942     -4.53023 
         450      1.33333  -0.00130279  -0.00113741     -4.53022 
         450      1.61333  -0.00101762  -0.00132185     -4.53021 
         450         1.92 -0.000721313  -0.00147882      -4.5302 
         450      2.25333 -0.000432273  -0.00159772     -4.53017 
         450      2.61333 -0.000157086  -0.00166847     -4.53014 
         450            3  8.06353e-05  -0.00168485      -4.5301 
         500            0           -0           -0     -4.12467 
         500     0.013333  0.000280643  7.74884e-07     -4.12467 
         500     0.053333    0.0013078  1.22028e-05     -4.12467 
         500         0.12   0.00190665  5.87758e-05     -4.12466 
         500     0.213332    0.0014948  0.000168088     -4.12466 
         500     0.333332  0.000336091   0.00035219     -4.12466 
         500         0.48 -0.000825842  0.000601202     -4.12466 
         500     0.653331  -0.00145871   0.00089626     -4.12466 
         500     0.853332  -0.00146997   0.00122244     -4.12466 
         500         1.08   -0.0010872   0.00156556     -4.12466 
         500      1.33333 -0.000702271   0.00190392     -4.12466 
         500      1.61333 -0.000537133    0.0022139     -4.12466 
         500         1.92 -0.000466194   0.00247945     -4.12466 
         500      2.25333 -0.000388998   0.00268484     -4.12466 
         500      2.61333 -0.000297585   0.00281379     -4.12466 
         500            3 -0.000215817   0.00285452     -4.12465 
         550            0            0            0     -3.71972 
         550     0.013333  4.51438e-05  -8.5945e-07     -3.71972 
         550     0.053333  0.000925717 -1.22667e-05     -3.71973 
         550         0.12   0.00245218 -5.10332e-05     -3.71973 
         550     0.213332   0.00418236 -0.000122107     -3.71972 
         550     0.333332   0.00541399 -0.000210592     -3.71972 
         550         0.48   0.00584192 -0.000296512     -3.71972 
         550     0.653331   0.00567115 -0.000374487     -3.71972 
         550     0.853332   0.00513815 -0.000456324     -3.71972 
         550         1.08   0.00427361 -0.000556392     -3.71971 
         550      1.33333   0.00323197 -0.000671388     -3.71972 
         550      1.61333    0.0023481 -0.000780536     -3.71973 
         550         1.92   0.00162599 -0.000869453     -3.71976 
         550      2.25333  0.000905498 -0.000935151     -3.71981 
         550      2.61333  0.000167321 -0.000974053     -3.71987 
         550            3 -0.000508307 -0.000982349     -3.71996 
         600            0           -0           -0     -3.32316 
         600     0.013333  -0.00111495  9.60674e-08     -3.32316 
         600     0.053333   -0.0034589  1.04747e-07     -3.32316 
         600         0.12  -0.00620983 -8.36474e-06     -3.32316 
         600     0.213332  -0.00810496 -4.99813e-05     -3.32316 
         600     0.333332  -0.00856164 -0.000154178     -3.32316 
         600         0.48  -0.00801238 -0.000333164     -3.32317 
         600     0.653331  -0.00729383 -0.000575571     -3.32317 
         600     0.853332  -0.00685961 -0.000856561     -3.32317 
         600         1.08   -0.0065216  -0.00114479     -3.32317 
         600      1.33333  -0.00582923  -0.00141033     -3.32317 
         600      1.61333  -0.00475694  -0.00164056     -3.32315 
         600         1.92  -0.00365289   -0.0018393     -3.32312 
         600      2.25333  -0.00254572   -0.0020003     -3.32307 
         600      2.61333  -0.00141922  -0.00211129     -3.32299 
         600            3 -0.000335061  -0.00216157     -3.32289 
         650            0   3.2373e-20 -1.06281e-26     -2.92281 
         650     0.013333  0.000529553  -7.8881e-09     -2.92281 
         650     0.053333   0.00243706  7.81322e-07     -2.92281 
         650         0.12   0.00465841  9.47754e-06     -2.92281 
         650     0.213332   0.00625228  4.40728e-05     -2.92281 
         650     0.333332   0.00676946  0.000125327      -2.9228 
         650         0.48   0.00648803  0.000262522      -2.9228 
         650     0.653331   0.00600234  0.000449602      -2.9228 
         650     0.853332   0.00569322   0.00067201      -2.9228 
         650         1.08   0.00551696  0.000910479      -2.9228 
         650      1.33333   0.00513491   0.00114172      -2.9228 
         650      1.61333   0.00436064   0.00134706     -2.92281 
         650         1.92   0.00341736   0.00152241     -2.92283 
         650      2.25333   0.00243168   0.00166527     -2.92286 
         650      2.61333    0.0014215   0.00176664     -2.92291 
         650            3  0.000415743    0.0018172     -2.92298 
         700            0 -3.92528e-19 -2.32534e-26     -2.53554 
         700     0.013333 -0.000665853  4.09053e-07     -2.53554 
         700     0.053333  -0.00197211  5.54035e-06     -2.53554 
         700         0.12  -0.00383727  2.09948e-05     -2.53554 
         700     0.213332  -0.00563161  4.31449e-05     -2.53554 
         700     0.333332  -0.00677095  5.75568e-05     -2.53554 
         700         0.48  -0.00713002  4.99315e-05     -2.53554 
         700     0.653331  -0.00700481  1.70554e-05     -2.53555 
         700     0.853332  -0.00670353  -3.2595e-05     -2.53555 
         700         1.08  -0.00627299 -8.48688e-05     -2.53555 
         700      1.33333  -0.00561443 -0.000128414     -2.53554 
         700      1.61333  -0.00475644 -0.000160689     -2.53553 
         700         1.92  -0.00384748 -0.000186586     -2.53551 
         700      2.25333  -0.00290252 -0.000207925     -2.53548 
         700      2.61333  -0.00191291 -0.000223784     -2.53542 
         700            3 -0.000917148 -0.000232723     -2.53535 
         750            0           -0           -0     -2.14524 
         750     0.013333  5.08159e-05  -5.3217e-07     -2.14524 
         750     0.053333  0.000879863 -7.57925e-06     -2.14524 
         750         0.12   0.00222259 -3.14814e-05     -2.14524 
         750     0.213332   0.00372879 -7.52756e-05     -2.14524 
         750     0.333332   0.00487238 -0.000129503     -2.14523 
         750         0.48   0.00539184 -0.000180414     -2.14523 
         750     0.653331   0.00541832 -0.000222068     -2.14523 
         750     0.853332   0.00517577 -0.000259928     -2.14523 
         750         1.08   0.00470797 -0.000305534     -2.14523 
         750      1.33333   0.00399224 -0.000365312     -2.14523 
         750      1.61333    0.0031848 -0.000432866     -2.14523 
         750         1.92   0.00246936 -0.000495418     -2.14525 
         750      2.25333   0.00177482  -0.00054796     -2.14528 
         750      2.61333   0.00104598 -0.000587856     -2.14532 
         750            3   0.00031067 -0.000612645     -2.14537 
         800            0            0            0     -1.76365 
         800     0.013333 -0.000179318  3.40059e-07     -1.76365 
         800     0.053333 -0.000200734  4.99776e-06     -1.76365 
         800         0.12 -0.000479135  2.19121e-05     -1.76365 
         800     0.213332  -0.00101537  5.67394e-05     -1.76365 
         800     0.333332  -0.00161912  0.000108694     -1.76365 
         800         0.48  -0.00209798    0.0001729     -1.76365 
         800     0.653331  -0.00239214  0.000246006     -1.76365 
         800     0.853332  -0.00250495  0.000329269     -1.76366 
         800         1.08  -0.00239152  0.000427377     -1.76366 
         800      1.33333  -0.00203131  0.000541879     -1.76366 
         800      1.61333  -0.00158572  0.000664321     -1.76365 
         800         1.92  -0.00125568  0.000780627     -1.76365 
         800      2.25333 -0.000980483  0.000883213     -1.76364 
         800      2.61333 -0.000696548  0.000967077     -1.76362 
         800            3 -0.000405931   0.00102752     -1.76359 
         850            0            0            0     -1.38117 
         850     0.013333  5.82757e-05  1.72597e-07     -1.38117 
         850     0.053333  0.000680374  2.97064e-06     -1.38117 
         850         0.12   0.00119854  1.60466e-05     -1.38117 
         850     0.213332   0.00121746  5.15821e-05     -1.38117 
         850     0.333332  0.000677885  0.000119943     -1.38117 
         850         0.48 -0.000103865  0.000222252     -1.38117 
         850     0.653331 -0.000737174  0.000350191     -1.38117 
         850     0.853332  -0.00104906  0.000492197     -1.38117 
         850         1.08  -0.00112176  0.000637788     -1.38117 
         850      1.33333   -0.0011373  0.000778558     -1.38117 
         850      1.61333  -0.00116621  0.000910495     -1.38117 
         850         1.92  -0.00113668    0.0010337     -1.38117 
         850      2.25333  -0.00105014   0.00114448     -1.38118 
         850      2.61333 -0.000930475   0.00123605     -1.38118 
         850            3 -0.000789331   0.00130102     -1.38119 
         900            0            0            0     -1.00539 
         900     0.013333 -0.000663265  5.32658e-07     -1.00539 
         900     0.053333  -0.00202498  7.50439e-06     -1.00539 
         900         0.12  -0.00412911  3.05921e-05     -1.00539 
         900     0.213332    -0.006389  7.09648e-05     -1.00539 
         900     0.333332  -0.00808868  0.000116151     -1.00539 
         900         0.48  -0.00888952  0.000148998      -1.0054 
         900     0.653331  -0.00897961   0.00016086      -1.0054 
         900     0.853332  -0.00871997  0.000156085      -1.0054 
         900         1.08  -0.00825531  0.000147889      -1.0054 
         900      1.33333  -0.00750869   0.00014911      -1.0054 
         900      1.61333  -0.00649737  0.000162706     -1.00539 
         900         1.92   -0.0054352  0.000180407     -1.00537 
         900      2.25333  -0.00435674  0.000194956     -1.00534 
         900      2.61333  -0.00321804  0.000205577     -1.00529 
         900            3  -0.00201589  0.000212812     -1.00522 
         950            0 -3.88587e-19  6.67668e-25     -0.63292 
         950     0.013333  -0.00063267 -3.82442e-07     -0.63292 
         950     0.053333  -0.00161945  -6.1542e-06    -0.632921 
         950         0.12  -0.00252482 -3.05304e-05    -0.632921 
         950     0.213332    -0.002772 -9.06755e-05    -0.632921 
         950     0.333332  -0.00230801 -0.000198138    -0.632922 
         950         0.48  -0.00154412 -0.000352164    -0.632922 
         950     0.653331 -0.000940716 -0.000543048    -0.632922 
         950     0.853332 -0.000714237 -0.000760555    -0.632922 
         950         1.08 -0.000833494 -0.000996904    -0.632921 
         950      1.33333  -0.00109635  -0.00124259     -0.63292 
         950      1.61333  -0.00124222   -0.0014835    -0.632917 
         950         1.92  -0.00116031   -0.0017058    -0.632913 
         950      2.25333 -0.000988026  -0.00190248    -0.632907 
         950      2.61333  -0.00080801  -0.00206498    -0.632898 
         950            3 -0.000620715  -0.00218333    -0.632887 
        1000            0            0            0    -0.269458 
        1000     0.013333  0.000229104 -3.15207e-07    -0.269458 
        1000     0.053333   0.00145481 -4.20791e-06    -0.269458 
        1000         0.12   0.00311376 -1.55051e-05    -0.269458 
        1000     0.213332   0.00463237 -2.98613e-05    -0.269458 
        1000     0.333332   0.00548987 -3.35421e-05    -0.269457 
        1000         0.48   0.00560255 -1.33638e-05    -0.269455 
        1000     0.653331   0.00529303  3.28953e-05    -0.269452 
        1000     0.853332   0.00489912  9.57526e-05    -0.269449 
        1000         1.08   0.00448652  0.000160387    -0.269447 
        1000      1.33333    0.0039321  0.000214728    -0.269447 
        1000      1.61333   0.00322335   0.00025604     -0.26945 
        1000         1.92   0.00253039  0.000290455    -0.269461 
        1000      2.25333   0.00188868  0.000322506     -0.26948 
        1000      2.61333   0.00125279  0.000350837    -0.269511 
        1000            3  0.000593309  0.000372334    -0.269556 
