Variables = x, y, u, v, p

Zone, I=2080, F=POINT
         -50            0            0            0     -163.785 
         -50      0.00048 -3.69386e-05 -6.24415e-09     -163.785 
         -50     0.001922 -0.000129974 -2.35465e-08     -163.785 
         -50     0.004326 -0.000235073 -4.82401e-08     -163.785 
         -50      0.00769 -0.000306455 -7.62233e-08     -163.785 
         -50     0.012017 -0.000322451  -1.0504e-07     -163.785 
         -50     0.017304 -0.000297065 -1.35028e-07     -163.785 
         -50     0.023553 -0.000268635 -1.69152e-07     -163.785 
         -50     0.030763 -0.000269244 -2.11319e-07     -163.785 
         -50     0.038936 -0.000295375 -2.64451e-07     -163.785 
         -50     0.048069 -0.000309593 -3.29801e-07     -163.785 
         -50     0.058163 -0.000290199  -4.0873e-07     -163.785 
         -50     0.069219 -0.000287214 -5.04446e-07     -163.785 
         -50     0.081236 -0.000308139 -6.13763e-07     -163.785 
         -50     0.094215 -0.000298538 -7.39915e-07     -163.785 
         -50     0.108155 -0.000301929 -8.86326e-07     -163.785 
         -50     0.123056 -0.000301165 -1.05448e-06     -163.785 
         -50     0.138918  -0.00030097 -1.24686e-06     -163.785 
         -50     0.155744 -0.000302139 -1.46484e-06     -163.785 
         -50     0.173529 -0.000303108 -1.71029e-06     -163.785 
         -50     0.192276 -0.000302538 -1.98748e-06     -163.785 
         -50     0.211984 -0.000301435 -2.30231e-06     -163.785 
         -50     0.232655 -0.000302034  -2.6562e-06     -163.785 
         -50     0.254285 -0.000300686 -3.03417e-06     -163.785 
         -50     0.276877 -0.000300448 -3.46234e-06     -163.785 
         -50     0.300431 -0.000299869 -3.90887e-06     -163.784 
         -50     0.324946 -0.000299191 -4.33808e-06     -163.784 
         -50     0.350424 -0.000298571 -4.73292e-06     -163.784 
         -50     0.376861 -0.000298084 -5.09555e-06     -163.784 
         -50      0.40426 -0.000297741 -5.44641e-06     -163.784 
         -50     0.432621 -0.000297516 -5.82054e-06     -163.784 
         -50     0.461945 -0.000297381 -6.26226e-06     -163.784 
         -50     0.492228 -0.000297334 -6.81807e-06     -163.784 
         -50     0.523472 -0.000297407 -7.52903e-06     -163.784 
         -50     0.555678 -0.000297641 -8.42361e-06     -163.784 
         -50     0.588845    -0.000298 -9.51333e-06     -163.784 
         -50     0.622976 -0.000298372 -1.06461e-05     -163.784 
         -50     0.658066 -0.000298919 -1.15137e-05     -163.784 
         -50     0.694117  -0.00029951   -1.227e-05     -163.783 
         -50      0.73113 -0.000300111 -1.29549e-05     -163.783 
         -50     0.769107 -0.000300688    -1.36e-05     -163.783 
         -50     0.808042 -0.000301211 -1.42287e-05     -163.783 
         -50     0.847939 -0.000301655 -1.48569e-05     -163.783 
         -50     0.888797 -0.000301998 -1.54939e-05     -163.783 
         -50      0.93062 -0.000302225 -1.61435e-05     -163.782 
         -50       0.9734 -0.000302324 -1.68057e-05     -163.782 
         -50      1.01714 -0.000302289 -1.74789e-05     -163.782 
         -50      1.06185 -0.000302119  -1.8161e-05     -163.782 
         -50      1.10751 -0.000301817 -1.88513e-05     -163.781 
         -50      1.15414  -0.00030139 -1.95511e-05     -163.781 
         -50      1.20173 -0.000300845 -2.02629e-05     -163.781 
         -50      1.25028 -0.000300191 -2.09885e-05     -163.781 
         -50      1.29979 -0.000299435 -2.17241e-05      -163.78 
         -50      1.35026 -0.000298579 -2.24522e-05      -163.78 
         -50       1.4017 -0.000297619 -2.31291e-05     -163.779 
         -50      1.45409 -0.000296541 -2.36673e-05     -163.779 
         -50      1.50745 -0.000295315 -2.39233e-05     -163.779 
         -50      1.56176 -0.000294117 -2.45773e-05     -163.778 
         -50      1.61705  -0.00029317 -2.51545e-05     -163.778 
         -50      1.67329 -0.000292269 -2.56401e-05     -163.777 
         -50      1.73049 -0.000291247 -2.60245e-05     -163.777 
         -50      1.78865 -0.000289981 -2.63035e-05     -163.776 
         -50      1.84778 -0.000288389 -2.64782e-05     -163.776 
         -50      1.90786  -0.00028643 -2.65549e-05     -163.775 
         -50      1.96891 -0.000284102 -2.65449e-05     -163.774 
         -50      2.03092 -0.000281438 -2.64641e-05     -163.774 
         -50      2.09389 -0.000278501 -2.63321e-05     -163.773 
         -50      2.15782 -0.000275383 -2.61723e-05     -163.772 
         -50      2.22272 -0.000272195 -2.60103e-05     -163.772 
         -50      2.28857 -0.000269061 -2.58738e-05     -163.771 
         -50      2.35539 -0.000266112 -2.57912e-05      -163.77 
         -50      2.42317 -0.000263476 -2.57905e-05     -163.769 
         -50      2.49191 -0.000261275 -2.58985e-05     -163.768 
         -50      2.56161  -0.00025961 -2.61396e-05     -163.767 
         -50      2.63226 -0.000258557 -2.65344e-05     -163.766 
         -50      2.70389 -0.000258161  -2.7099e-05     -163.765 
         -50      2.77648 -0.000258427 -2.78434e-05     -163.764 
         -50      2.85002 -0.000259322 -2.87713e-05     -163.763 
         -50      2.92453 -0.000260764 -2.98786e-05     -163.762 
         -50            3 -0.000262633 -3.11538e-05     -163.761 
         -25            0 -2.73111e-19  -2.3876e-23     -157.219 
         -25      0.00048 -2.71599e-05 -2.43413e-09     -157.219 
         -25     0.001922 -9.56152e-05 -9.26451e-09     -157.219 
         -25     0.004326 -0.000173108 -1.93134e-08     -157.219 
         -25      0.00769 -0.000226094 -3.13868e-08     -157.219 
         -25     0.012017  -0.00023868 -4.50769e-08     -157.219 
         -25     0.017304 -0.000221089 -6.12018e-08     -157.219 
         -25     0.023553 -0.000201363 -8.17638e-08     -157.219 
         -25     0.030763 -0.000202955 -1.09319e-07     -157.219 
         -25     0.038936 -0.000223244 -1.46278e-07     -157.219 
         -25     0.048069  -0.00023477 -1.94657e-07     -157.219 
         -25     0.058163 -0.000221595 -2.56777e-07     -157.219 
         -25     0.069219 -0.000220311 -3.35852e-07     -157.219 
         -25     0.081236 -0.000236369 -4.32596e-07     -157.219 
         -25     0.094215  -0.00022987 -5.50474e-07     -157.219 
         -25     0.108155 -0.000232656 -6.93208e-07     -157.219 
         -25     0.123056 -0.000232153 -8.62285e-07     -157.219 
         -25     0.138918  -0.00023181  -1.0602e-06     -157.219 
         -25     0.155744 -0.000232208 -1.28917e-06     -157.219 
         -25     0.173529 -0.000232211 -1.55082e-06     -157.219 
         -25     0.192276 -0.000230853  -1.8463e-06     -157.219 
         -25     0.211984 -0.000228896  -2.1762e-06     -157.219 
         -25     0.232655 -0.000228004 -2.54092e-06     -157.219 
         -25     0.254285 -0.000225536 -2.94122e-06     -157.219 
         -25     0.276877 -0.000223768 -3.37578e-06     -157.218 
         -25     0.300431 -0.000221674 -3.84354e-06     -157.218 
         -25     0.324946 -0.000219461 -4.34536e-06     -157.218 
         -25     0.350424 -0.000217277 -4.88296e-06     -157.218 
         -25     0.376861 -0.000215212 -5.45807e-06     -157.218 
         -25      0.40426 -0.000213312  -6.0719e-06     -157.218 
         -25     0.432621 -0.000211594 -6.72409e-06     -157.218 
         -25     0.461945  -0.00021007 -7.41188e-06     -157.218 
         -25     0.492228 -0.000208762 -8.12962e-06     -157.218 
         -25     0.523472  -0.00020771  -8.8692e-06     -157.218 
         -25     0.555678 -0.000206951 -9.62147e-06     -157.218 
         -25     0.588845 -0.000206456 -1.03797e-05     -157.218 
         -25     0.622976 -0.000206113 -1.11443e-05     -157.218 
         -25     0.658066 -0.000206024 -1.19159e-05     -157.218 
         -25     0.694117  -0.00020609 -1.27024e-05     -157.218 
         -25      0.73113 -0.000206251 -1.35091e-05     -157.218 
         -25     0.769107 -0.000206449 -1.43366e-05     -157.218 
         -25     0.808042 -0.000206636 -1.51808e-05     -157.218 
         -25     0.847939  -0.00020677 -1.60345e-05     -157.218 
         -25     0.888797 -0.000206818 -1.68877e-05     -157.218 
         -25      0.93062 -0.000206757 -1.77298e-05     -157.218 
         -25       0.9734 -0.000206571   -1.855e-05     -157.218 
         -25      1.01714 -0.000206254 -1.93399e-05     -157.218 
         -25      1.06185 -0.000205808 -2.00943e-05     -157.217 
         -25      1.10751 -0.000205242 -2.08122e-05     -157.217 
         -25      1.15414  -0.00020457 -2.14974e-05     -157.217 
         -25      1.20173 -0.000203813 -2.21577e-05     -157.217 
         -25      1.25028 -0.000202991 -2.28032e-05     -157.217 
         -25      1.29979 -0.000202129 -2.34423e-05     -157.217 
         -25      1.35026 -0.000201249 -2.40759e-05     -157.217 
         -25       1.4017 -0.000200374 -2.46873e-05     -157.217 
         -25      1.45409 -0.000199524 -2.52296e-05     -157.216 
         -25      1.50745 -0.000198718 -2.56142e-05     -157.216 
         -25      1.56176 -0.000197918 -2.61547e-05     -157.216 
         -25      1.61705  -0.00019719 -2.65935e-05     -157.216 
         -25      1.67329 -0.000196554 -2.69442e-05     -157.216 
         -25      1.73049 -0.000196025 -2.72203e-05     -157.216 
         -25      1.78865 -0.000195618  -2.7435e-05     -157.215 
         -25      1.84778 -0.000195344 -2.76009e-05     -157.215 
         -25      1.90786  -0.00019521 -2.77301e-05     -157.215 
         -25      1.96891 -0.000195222 -2.78333e-05     -157.215 
         -25      2.03092 -0.000195378 -2.79202e-05     -157.214 
         -25      2.09389 -0.000195678 -2.79991e-05     -157.214 
         -25      2.15782 -0.000196112 -2.80764e-05     -157.214 
         -25      2.22272 -0.000196671 -2.81568e-05     -157.214 
         -25      2.28857  -0.00019734 -2.82429e-05     -157.213 
         -25      2.35539 -0.000198101 -2.83352e-05     -157.213 
         -25      2.42317 -0.000198931 -2.84319e-05     -157.213 
         -25      2.49191 -0.000199806 -2.85291e-05     -157.212 
         -25      2.56161 -0.000200699 -2.86205e-05     -157.212 
         -25      2.63226 -0.000201581  -2.8698e-05     -157.212 
         -25      2.70389 -0.000202423 -2.87513e-05     -157.211 
         -25      2.77648 -0.000203195 -2.87689e-05     -157.211 
         -25      2.85002 -0.000203869 -2.87381e-05      -157.21 
         -25      2.92453 -0.000204419 -2.86458e-05      -157.21 
         -25            3 -0.000204825 -2.84793e-05      -157.21 
           0            0 -2.70156e-15  1.81953e-15     -151.733 
           0      0.00048 -8.66404e-05  5.84469e-05     -151.733 
           0     0.001922 -0.000300338  0.000203602     -151.734 
           0     0.004326  -0.00052793   0.00036089     -151.735 
           0      0.00769 -0.000655521   0.00045326     -151.737 
           0     0.012017 -0.000636811  0.000445324     -151.739 
           0     0.017304 -0.000520741  0.000363171     -151.741 
           0     0.023553 -0.000415124  0.000274814     -151.743 
           0     0.030763 -0.000399766  0.000237913     -151.745 
           0     0.038936 -0.000449057  0.000249578     -151.748 
           0     0.048069 -0.000448907  0.000249124      -151.75 
           0     0.058163 -0.000350369  0.000201813     -151.752 
           0     0.069219 -0.000324474  0.000190445     -151.755 
           0     0.081236 -0.000378988  0.000208585     -151.758 
           0     0.094215 -0.000320745  0.000174518      -151.76 
           0     0.108155 -0.000310289  0.000171485     -151.763 
           0     0.123056 -0.000292146  0.000162123     -151.766 
           0     0.138918 -0.000277971  0.000153174     -151.768 
           0     0.155744 -0.000268422  0.000146427     -151.771 
           0     0.173529  -0.00025842  0.000140571     -151.774 
           0     0.192276  -0.00024493  0.000134232     -151.777 
           0     0.211984 -0.000232534  0.000128396      -151.78 
           0     0.232655  -0.00022761  0.000124631     -151.783 
           0     0.254285 -0.000216318  0.000118212     -151.785 
           0     0.276877 -0.000208833  0.000114149     -151.788 
           0     0.300431 -0.000201413   0.00010985     -151.791 
           0     0.324946 -0.000194616  0.000105681     -151.794 
           0     0.350424 -0.000188453  0.000101733     -151.797 
           0     0.376861 -0.000182755  9.79764e-05       -151.8 
           0      0.40426 -0.000177564  9.43891e-05     -151.803 
           0     0.432621 -0.000172822  9.09584e-05     -151.806 
           0     0.461945 -0.000168509  8.76662e-05     -151.809 
           0     0.492228 -0.000164602   8.4499e-05     -151.812 
           0     0.523472 -0.000161084  8.14478e-05     -151.815 
           0     0.555678 -0.000157941  7.85034e-05     -151.818 
           0     0.588845 -0.000155156  7.56559e-05     -151.821 
           0     0.622976 -0.000152722  7.28964e-05     -151.824 
           0     0.658066  -0.00015063  7.02185e-05     -151.827 
           0     0.694117 -0.000148867  6.76228e-05      -151.83 
           0      0.73113  -0.00014742  6.50939e-05     -151.833 
           0     0.769107 -0.000146268  6.26375e-05     -151.836 
           0     0.808042 -0.000145391  6.02471e-05     -151.839 
           0     0.847939 -0.000144771  5.79175e-05     -151.842 
           0     0.888797 -0.000144378  5.56473e-05     -151.845 
           0      0.93062  -0.00014418  5.34456e-05     -151.848 
           0       0.9734  -0.00014415  5.12979e-05     -151.851 
           0      1.01714 -0.000144268   4.9203e-05     -151.854 
           0      1.06185 -0.000144511  4.71715e-05     -151.857 
           0      1.10751 -0.000144859   4.5203e-05      -151.86 
           0      1.15414 -0.000145301  4.32889e-05     -151.863 
           0      1.20173 -0.000145831  4.14235e-05     -151.866 
           0      1.25028 -0.000146442  3.96264e-05     -151.869 
           0      1.29979 -0.000147138  3.78652e-05     -151.872 
           0      1.35026 -0.000147893  3.61715e-05     -151.875 
           0       1.4017 -0.000148694  3.45353e-05     -151.878 
           0      1.45409 -0.000149508  3.29509e-05      -151.88 
           0      1.50745 -0.000150296  3.14259e-05     -151.883 
           0      1.56176 -0.000151014  2.99683e-05     -151.886 
           0      1.61705 -0.000151629  2.85785e-05     -151.889 
           0      1.67329 -0.000152129  2.72456e-05     -151.892 
           0      1.73049  -0.00015253  2.59526e-05     -151.894 
           0      1.78865 -0.000152821  2.47074e-05     -151.897 
           0      1.84778 -0.000153001  2.35413e-05       -151.9 
           0      1.90786 -0.000153188  2.23918e-05     -151.902 
           0      1.96891 -0.000153428  2.12801e-05     -151.905 
           0      2.03092 -0.000153782  2.02109e-05     -151.908 
           0      2.09389 -0.000154297  1.91714e-05      -151.91 
           0      2.15782  -0.00015501  1.81506e-05     -151.913 
           0      2.22272 -0.000155952  1.71415e-05     -151.915 
           0      2.28857  -0.00015714  1.61423e-05     -151.918 
           0      2.35539 -0.000158577  1.51575e-05      -151.92 
           0      2.42317  -0.00016025  1.41974e-05     -151.923 
           0      2.49191 -0.000162113  1.32763e-05     -151.925 
           0      2.56161 -0.000164082  1.24084e-05     -151.928 
           0      2.63226 -0.000166077  1.15967e-05      -151.93 
           0      2.70389 -0.000168065  1.09082e-05     -151.933 
           0      2.77648 -0.000169912  1.03976e-05     -151.935 
           0      2.85002 -0.000171497   1.0049e-05     -151.937 
           0      2.92453 -0.000172812  9.83344e-06      -151.94 
           0            3 -0.000173887  9.81625e-06     -151.942 
          20            0 -2.25709e-19 -4.43431e-23     -148.645 
          20      0.00048 -2.24476e-05 -4.53051e-09     -148.645 
          20     0.001922 -7.90461e-05 -1.73602e-08     -148.645 
          20     0.004326 -0.000143182 -3.66242e-08     -148.645 
          20      0.00769 -0.000187175 -6.05708e-08     -148.645 
          20     0.012017 -0.000197897 -8.89543e-08     -148.645 
          20     0.017304 -0.000183756 -1.23724e-07     -148.645 
          20     0.023553 -0.000167858 -1.68812e-07     -148.645 
          20     0.030763 -0.000169527 -2.28814e-07     -148.645 
          20     0.038936 -0.000186597 -3.07554e-07     -148.645 
          20     0.048069 -0.000196423 -4.07497e-07     -148.645 
          20     0.058163 -0.000185875 -5.30965e-07     -148.645 
          20     0.069219 -0.000185148 -6.81235e-07     -148.645 
          20     0.081236 -0.000198777 -8.56386e-07     -148.645 
          20     0.094215 -0.000193881  -1.0586e-06     -148.645 
          20     0.108155 -0.000196779   -1.291e-06     -148.645 
          20     0.123056 -0.000197125 -1.55172e-06     -148.645 
          20     0.138918 -0.000197796 -1.84104e-06     -148.645 
          20     0.155744 -0.000199301 -2.15937e-06     -148.645 
          20     0.173529 -0.000200727  -2.5068e-06     -148.645 
          20     0.192276  -0.00020128 -2.88327e-06     -148.645 
          20     0.211984 -0.000201574 -3.28855e-06     -148.645 
          20     0.232655 -0.000202978 -3.72346e-06     -148.645 
          20     0.254285 -0.000203329 -4.19145e-06     -148.645 
          20     0.276877 -0.000204343 -4.69036e-06     -148.645 
          20     0.300431 -0.000205298 -5.22339e-06     -148.645 
          20     0.324946  -0.00020626 -5.79115e-06     -148.645 
          20     0.350424  -0.00020726 -6.39319e-06     -148.645 
          20     0.376861 -0.000208302 -7.02746e-06     -148.645 
          20      0.40426 -0.000209327 -7.69153e-06     -148.645 
          20     0.432621 -0.000210285 -8.38192e-06     -148.645 
          20     0.461945 -0.000211113 -9.09433e-06     -148.645 
          20     0.492228 -0.000211752 -9.82404e-06     -148.645 
          20     0.523472 -0.000212149 -1.05667e-05     -148.645 
          20     0.555678 -0.000212271 -1.13185e-05     -148.645 
          20     0.588845  -0.00021211 -1.20773e-05     -148.645 
          20     0.622976 -0.000211692 -1.28422e-05     -148.645 
          20     0.658066 -0.000211066 -1.36142e-05     -148.645 
          20     0.694117 -0.000210291 -1.43961e-05     -148.645 
          20      0.73113 -0.000209401 -1.51906e-05     -148.644 
          20     0.769107 -0.000208464 -1.59998e-05     -148.644 
          20     0.808042 -0.000207505 -1.68236e-05     -148.644 
          20     0.847939  -0.00020654 -1.76602e-05     -148.644 
          20     0.888797 -0.000205573 -1.85074e-05     -148.644 
          20      0.93062 -0.000204592 -1.93628e-05     -148.644 
          20       0.9734 -0.000203579 -2.02234e-05     -148.644 
          20      1.01714  -0.00020251 -2.10856e-05     -148.644 
          20      1.06185 -0.000201361 -2.19422e-05     -148.643 
          20      1.10751 -0.000200116 -2.27903e-05     -148.643 
          20      1.15414 -0.000198761 -2.36248e-05     -148.643 
          20      1.20173 -0.000197287 -2.44373e-05     -148.643 
          20      1.25028 -0.000195711 -2.52275e-05     -148.643 
          20      1.29979 -0.000194011 -2.59887e-05     -148.642 
          20      1.35026 -0.000192211 -2.67195e-05     -148.642 
          20       1.4017 -0.000190323  -2.7416e-05     -148.642 
          20      1.45409 -0.000188353 -2.80738e-05     -148.642 
          20      1.50745 -0.000186302 -2.86892e-05     -148.641 
          20      1.56176 -0.000184175 -2.92601e-05     -148.641 
          20      1.61705 -0.000181983 -2.97857e-05     -148.641 
          20      1.67329 -0.000179733 -3.02611e-05      -148.64 
          20      1.73049 -0.000177419 -3.06806e-05      -148.64 
          20      1.78865  -0.00017505 -3.10574e-05      -148.64 
          20      1.84778 -0.000172627  -3.1364e-05     -148.639 
          20      1.90786 -0.000170143 -3.16146e-05     -148.639 
          20      1.96891 -0.000167605 -3.18084e-05     -148.639 
          20      2.03092 -0.000165014 -3.19428e-05     -148.638 
          20      2.09389 -0.000162375 -3.20168e-05     -148.638 
          20      2.15782  -0.00015971 -3.20375e-05     -148.637 
          20      2.22272 -0.000157047 -3.20112e-05     -148.637 
          20      2.28857 -0.000154432  -3.1948e-05     -148.636 
          20      2.35539 -0.000151943  -3.1869e-05     -148.636 
          20      2.42317 -0.000149674 -3.17954e-05     -148.635 
          20      2.49191 -0.000147717 -3.17449e-05     -148.635 
          20      2.56161  -0.00014617 -3.17332e-05     -148.634 
          20      2.63226 -0.000145143 -3.17882e-05     -148.634 
          20      2.70389 -0.000144621 -3.19082e-05     -148.633 
          20      2.77648 -0.000144615 -3.20964e-05     -148.632 
          20      2.85002 -0.000145079 -3.23592e-05     -148.632 
          20      2.92453 -0.000145857 -3.26167e-05     -148.631 
          20            3 -0.000146818 -3.28424e-05     -148.631 
          40            0           -0           -0      -145.18 
          40      0.00048 -1.87902e-05 -4.37592e-10      -145.18 
          40     0.001922 -6.57336e-05  4.94287e-11      -145.18 
          40     0.004326 -0.000117525   6.7942e-09      -145.18 
          40      0.00769 -0.000150048  2.84373e-08      -145.18 
          40     0.012017 -0.000152149  7.66954e-08      -145.18 
          40     0.017304 -0.000131806  1.66005e-07      -145.18 
          40     0.023553 -0.000110032  3.13403e-07      -145.18 
          40     0.030763 -0.000104536  5.38196e-07      -145.18 
          40     0.038936 -0.000114025  8.61779e-07      -145.18 
          40     0.048069 -0.000119074  1.30675e-06      -145.18 
          40     0.058163 -0.000108587  1.89631e-06      -145.18 
          40     0.069219 -0.000109654  2.65315e-06      -145.18 
          40     0.081236 -0.000126552  3.59916e-06      -145.18 
          40     0.094215 -0.000130371   4.7535e-06      -145.18 
          40     0.108155 -0.000144328  6.13198e-06      -145.18 
          40     0.123056 -0.000159126  7.74719e-06      -145.18 
          40     0.138918 -0.000177002  9.60706e-06      -145.18 
          40     0.155744 -0.000197983  1.17152e-05      -145.18 
          40     0.173529 -0.000220736  1.40696e-05      -145.18 
          40     0.192276 -0.000243987  1.66649e-05      -145.18 
          40     0.211984 -0.000267681  1.94911e-05      -145.18 
          40     0.232655 -0.000292416  2.25358e-05      -145.18 
          40     0.254285 -0.000315669  2.57825e-05      -145.18 
          40     0.276877 -0.000338542  2.92161e-05      -145.18 
          40     0.300431 -0.000359797  3.28195e-05      -145.18 
          40     0.324946 -0.000379179  3.65756e-05      -145.18 
          40     0.350424 -0.000396458  4.04698e-05      -145.18 
          40     0.376861 -0.000411428  4.44888e-05      -145.18 
          40      0.40426 -0.000423934  4.86225e-05      -145.18 
          40     0.432621 -0.000433871  5.28626e-05      -145.18 
          40     0.461945 -0.000441195  5.72025e-05      -145.18 
          40     0.492228 -0.000445927  6.16356e-05      -145.18 
          40     0.523472 -0.000448153  6.61566e-05      -145.18 
          40     0.555678 -0.000448005  7.07606e-05      -145.18 
          40     0.588845 -0.000445628  7.54435e-05      -145.18 
          40     0.622976 -0.000441235  8.01968e-05      -145.18 
          40     0.658066 -0.000435074  8.50048e-05      -145.18 
          40     0.694117 -0.000427396  8.98592e-05      -145.18 
          40      0.73113 -0.000418589  9.47398e-05      -145.18 
          40     0.769107 -0.000409009  9.96253e-05      -145.18 
          40     0.808042 -0.000398973  0.000104493      -145.18 
          40     0.847939 -0.000388748  0.000109322      -145.18 
          40     0.888797 -0.000378549  0.000114088      -145.18 
          40      0.93062 -0.000368533  0.000118771      -145.18 
          40       0.9734 -0.000358805  0.000123349     -145.179 
          40      1.01714 -0.000349411  0.000127801     -145.179 
          40      1.06185 -0.000340345   0.00013211     -145.179 
          40      1.10751 -0.000331562  0.000136258     -145.179 
          40      1.15414 -0.000322978   0.00014023     -145.179 
          40      1.20173 -0.000314491  0.000144011     -145.179 
          40      1.25028 -0.000305986   0.00014759     -145.179 
          40      1.29979 -0.000297357  0.000150955     -145.179 
          40      1.35026 -0.000288514  0.000154095     -145.179 
          40       1.4017 -0.000279404  0.000156995     -145.179 
          40      1.45409 -0.000270018  0.000159638     -145.179 
          40      1.50745   -0.0002604  0.000162001     -145.179 
          40      1.56176 -0.000250699  0.000164112     -145.179 
          40      1.61705 -0.000240856  0.000165937     -145.179 
          40      1.67329  -0.00023091  0.000167465     -145.179 
          40      1.73049 -0.000220906  0.000168691     -145.179 
          40      1.78865 -0.000210894  0.000169608     -145.179 
          40      1.84778 -0.000200932  0.000170215     -145.179 
          40      1.90786 -0.000191082   0.00017051     -145.179 
          40      1.96891 -0.000181409  0.000170496     -145.179 
          40      2.03092  -0.00017198  0.000170175     -145.179 
          40      2.09389 -0.000162863  0.000169555     -145.179 
          40      2.15782 -0.000154126  0.000168644     -145.179 
          40      2.22272 -0.000145833  0.000167455     -145.179 
          40      2.28857 -0.000138042     0.000166     -145.178 
          40      2.35539 -0.000130808  0.000164297     -145.178 
          40      2.42317 -0.000124175  0.000162364     -145.178 
          40      2.49191 -0.000118179  0.000160221     -145.178 
          40      2.56161 -0.000112843   0.00015789     -145.178 
          40      2.63226 -0.000108178  0.000155396     -145.178 
          40      2.70389  -0.00010418  0.000152763     -145.178 
          40      2.77648 -0.000100832  0.000150016     -145.178 
          40      2.85002 -9.81007e-05  0.000147181     -145.178 
          40      2.92453 -9.59396e-05  0.000144282     -145.178 
          40            3 -9.42896e-05  0.000141343     -145.178 
          60            0           -0           -0     -141.937 
          60      0.00048 -1.78209e-05 -1.77814e-10     -141.937 
          60     0.001922  -6.2248e-05  1.00814e-09     -141.937 
          60     0.004326 -0.000110944  8.65035e-09     -141.937 
          60      0.00769 -0.000140792  3.09914e-08     -141.937 
          60     0.012017 -0.000141087  7.91687e-08     -141.937 
          60     0.017304 -0.000119452  1.66779e-07     -141.937 
          60     0.023553 -9.59929e-05  3.09618e-07     -141.937 
          60     0.030763 -8.76462e-05  5.25179e-07     -141.937 
          60     0.038936 -9.31364e-05  8.32318e-07     -141.937 
          60     0.048069 -9.38174e-05  1.25037e-06     -141.937 
          60     0.058163 -7.90302e-05  1.79867e-06     -141.937 
          60     0.069219 -7.47126e-05  2.49569e-06     -141.937 
          60     0.081236 -8.49622e-05  3.35856e-06     -141.937 
          60     0.094215 -8.20959e-05  4.40205e-06     -141.937 
          60     0.108155 -8.84072e-05   5.6381e-06     -141.937 
          60     0.123056 -9.50577e-05  7.07573e-06     -141.937 
          60     0.138918 -0.000104291   8.7206e-06     -141.937 
          60     0.155744 -0.000116256  1.05754e-05     -141.937 
          60     0.173529 -0.000129819  1.26386e-05     -141.937 
          60     0.192276 -0.000143921  1.49067e-05     -141.937 
          60     0.211984 -0.000158672  1.73734e-05     -141.937 
          60     0.232655 -0.000174805  2.00307e-05     -141.937 
          60     0.254285 -0.000190052  2.28693e-05     -141.937 
          60     0.276877   -0.0002056  2.58793e-05     -141.937 
          60     0.300431 -0.000220367  2.90513e-05     -141.937 
          60     0.324946 -0.000234179   3.2377e-05     -141.937 
          60     0.350424 -0.000246849  3.58497e-05     -141.937 
          60     0.376861 -0.000258183   3.9463e-05     -141.937 
          60      0.40426 -0.000267989  4.32137e-05     -141.937 
          60     0.432621 -0.000276084  4.71001e-05     -141.937 
          60     0.461945 -0.000282306  5.11229e-05     -141.937 
          60     0.492228 -0.000286516  5.52841e-05     -141.937 
          60     0.523472 -0.000288601  5.95874e-05     -141.937 
          60     0.555678 -0.000288469  6.40363e-05     -141.937 
          60     0.588845 -0.000286024  6.86313e-05     -141.937 
          60     0.622976 -0.000281233  7.33694e-05     -141.937 
          60     0.658066 -0.000274127  7.82576e-05     -141.937 
          60     0.694117 -0.000264729  8.32901e-05     -141.937 
          60      0.73113 -0.000253307  8.84511e-05     -141.937 
          60     0.769107  -0.00024022  9.37199e-05     -141.937 
          60     0.808042 -0.000225908  9.90703e-05     -141.937 
          60     0.847939 -0.000210863  0.000104473     -141.937 
          60     0.888797 -0.000195615  0.000109896     -141.937 
          60      0.93062 -0.000180694  0.000115304     -141.937 
          60       0.9734 -0.000166611  0.000120659     -141.937 
          60      1.01714 -0.000153812  0.000125925     -141.937 
          60      1.06185  -0.00014265  0.000131068     -141.937 
          60      1.10751 -0.000133356  0.000136055     -141.937 
          60      1.15414 -0.000126016  0.000140856     -141.937 
          60      1.20173 -0.000120555   0.00014545     -141.937 
          60      1.25028 -0.000116741  0.000149818     -141.937 
          60      1.29979  -0.00011421  0.000153949     -141.937 