Variables = x, y, u, v, p

Zone, I=416, F=POINT
         -50            0            0            0     -199.251 
         -50     0.013333 -0.000375839 -1.47433e-07     -199.251 
         -50     0.053333  -0.00033142 -5.73956e-07     -199.251 
         -50         0.12 -0.000298794 -1.61489e-06     -199.251 
         -50     0.213332  -0.00027226 -3.27306e-06     -199.251 
         -50     0.333332  -0.00025597 -5.30548e-06     -199.251 
         -50         0.48 -0.000249164 -6.72741e-06     -199.251 
         -50     0.653331 -0.000250462 -8.08263e-06      -199.25 
         -50     0.853332 -0.000260746 -9.73632e-06     -199.249 
         -50         1.08 -0.000278455 -1.14325e-05     -199.248 
         -50      1.33333 -0.000299137 -1.31211e-05     -199.246 
         -50      1.61333 -0.000321699 -1.47669e-05     -199.243 
         -50         1.92 -0.000339256 -1.54152e-05      -199.24 
         -50      2.25333 -0.000348562 -1.71964e-05     -199.235 
         -50      2.61333 -0.000353824 -1.84572e-05     -199.229 
         -50            3 -0.000356782  -1.5842e-05     -199.222 
         -25            0           -0           -0     -191.294 
         -25     0.013333  -0.00026963 -5.21297e-08     -191.294 
         -25     0.053333 -0.000225655 -1.34258e-07     -191.294 
         -25         0.12 -0.000192714 -1.67345e-07     -191.294 
         -25     0.213332 -0.000169966  1.25044e-07     -191.294 
         -25     0.333332 -0.000157179  1.04421e-06     -191.294 
         -25         0.48 -0.000149378  2.75819e-06     -191.294 
         -25     0.653331 -0.000144322  5.18853e-06     -191.294 
         -25     0.853332 -0.000146909  7.86575e-06     -191.293 
         -25         1.08 -0.000162767  1.00506e-05     -191.293 
         -25      1.33333 -0.000186905  1.16031e-05     -191.292 
         -25      1.61333 -0.000213192  1.23262e-05     -191.291 
         -25         1.92  -0.00024408  1.18098e-05      -191.29 
         -25      2.25333 -0.000264283   9.9592e-06     -191.288 
         -25      2.61333 -0.000272215  7.36384e-06     -191.286 
         -25            3 -0.000276445  5.27587e-06     -191.283 
           0            0            0            0     -184.734 
           0     0.013333 -0.000623237  0.000421697     -184.741 
           0     0.053333 -0.000421603  0.000222144     -184.753 
           0         0.12 -0.000330928  0.000160968     -184.767 
           0     0.213332 -0.000290015  0.000124924     -184.781 
           0     0.333332 -0.000269597  0.000103033     -184.796 
           0         0.48 -0.000253326  8.78059e-05     -184.811 
           0     0.653331 -0.000238893  7.69056e-05     -184.826 
           0     0.853332 -0.000227253  6.87783e-05     -184.841 
           0         1.08 -0.000220965  6.22973e-05     -184.855 
           0      1.33333 -0.000219849  5.67548e-05     -184.869 
           0      1.61333 -0.000221995  5.17544e-05     -184.882 
           0         1.92 -0.000224428   4.6953e-05     -184.895 
           0      2.25333  -0.00022419    4.226e-05     -184.906 
           0      2.61333 -0.000217243  3.89648e-05     -184.917 
           0            3 -0.000202675  3.79585e-05     -184.928 
          20            0            0            0      -181.09 
          20     0.013333  0.000400677  0.000353689     -181.083 
          20     0.053333  0.000850423   0.00074794     -181.072 
          20         0.12  0.000586312   0.00058683     -181.059 
          20     0.213332  0.000237488  0.000425297     -181.045 
          20     0.333332 -5.14926e-05  0.000322256     -181.031 
          20         0.48 -0.000256031  0.000264286     -181.017 
          20     0.653331 -0.000359106  0.000239047     -181.003 
          20     0.853332 -0.000377266  0.000235111     -180.988 
          20         1.08 -0.000360833  0.000240475     -180.974 
          20      1.33333 -0.000340073  0.000246364     -180.961 
          20      1.61333 -0.000318777  0.000247524     -180.948 
          20         1.92 -0.000300031  0.000240412     -180.935 
          20      2.25333 -0.000285815  0.000224553     -180.922 
          20      2.61333 -0.000277257  0.000201764      -180.91 
          20            3  -0.00026865  0.000177358     -180.898 
          40            0 -4.01253e-19 -1.49589e-23     -176.692 
          40     0.013333 -0.000123292 -3.33671e-08     -176.692 
          40     0.053333  9.30898e-05 -1.35756e-07     -176.692 
          40         0.12  0.000311671  7.67514e-07     -176.692 
          40     0.213332  0.000431192  5.89311e-06     -176.692 
          40     0.333332  0.000435686  1.86861e-05     -176.692 
          40         0.48  0.000393254  4.00342e-05     -176.692 
          40     0.653331  0.000360376   6.7913e-05     -176.692 
          40     0.853332   0.00033163  9.89794e-05     -176.691 
          40         1.08  0.000271043  0.000130175     -176.691 
          40      1.33333  0.000155032   0.00015784     -176.691 
          40      1.61333  1.03165e-05  0.000179073     -176.691 
          40         1.92 -0.000127601  0.000190715     -176.691 
          40      2.25333 -0.000240331  0.000192141      -176.69 
          40      2.61333 -0.000315934  0.000185317      -176.69 
          40            3  -0.00035356  0.000172297     -176.689 
          60            0  -1.9137e-19 -3.86987e-24     -172.756 
          60     0.013333   -0.0001133 -1.48697e-07     -172.756 
          60     0.053333  0.000134788 -1.87292e-06     -172.756 
          60         0.12  0.000453715  -6.6256e-06     -172.756 
          60     0.213332  0.000717342 -1.23753e-05     -172.756 
          60     0.333332  0.000845589 -1.45805e-05     -172.756 
          60         0.48  0.000871936 -1.08651e-05     -172.756 
          60     0.653331  0.000847595  -3.6206e-06     -172.756 
          60     0.853332  0.000751885  1.39704e-06     -172.756 
          60         1.08  0.000567941  1.26108e-06     -172.756 
          60      1.33333  0.000355161 -1.91837e-06     -172.756 
          60      1.61333  0.000140656 -4.58792e-06     -172.756 
          60         1.92 -8.79043e-05 -6.82317e-06     -172.756 
          60      2.25333 -0.000263852 -8.27065e-06     -172.756 
          60      2.61333 -0.000373994 -8.72541e-06     -172.755 
          60            3 -0.000436218   -9.531e-06     -172.755 
          80            0            0            0     -168.953 
          80     0.013333 -0.000138257 -1.64214e-07     -168.953 
          80     0.053333  3.76252e-05 -2.18638e-06     -168.953 
          80         0.12  0.000285528 -8.36687e-06     -168.953 
          80     0.213332  0.000513384 -1.79594e-05     -168.953 
          80     0.333332  0.000638626 -2.73752e-05     -168.953 
          80         0.48  0.000665203 -3.42683e-05     -168.953 
          80     0.653331  0.000621271 -4.01769e-05     -168.953 
          80     0.853332  0.000492345 -4.91279e-05     -168.953 
          80         1.08  0.000297694 -6.17458e-05     -168.953 
          80      1.33333  0.000127813 -7.38631e-05     -168.952 
          80      1.61333  -9.9464e-06  -8.2055e-05     -168.952 
          80         1.92 -0.000160617 -8.64519e-05     -168.952 
          80      2.25333 -0.000277899 -8.69161e-05     -168.952 
          80      2.61333 -0.000350824 -8.33054e-05     -168.952 
          80            3  -0.00038983 -7.71313e-05     -168.952 
         100            0            0            0     -165.228 
         100     0.013333  -0.00016741 -1.17059e-07     -165.228 
         100     0.053333 -8.23698e-05 -1.58254e-06     -165.228 
         100         0.12  4.74181e-05 -6.22756e-06     -165.228 
         100     0.213332  0.000184814 -1.40849e-05     -165.228 
         100     0.333332  0.000283458 -2.34728e-05     -165.228 
         100         0.48  0.000334047 -3.34514e-05     -165.228 
         100     0.653331  0.000333472 -4.52277e-05     -165.228 
         100     0.853332  0.000263089 -6.08949e-05     -165.228 
         100         1.08  0.000148277 -7.95017e-05     -165.228 
         100      1.33333  5.34657e-05 -9.71044e-05     -165.228 
         100      1.61333 -2.98706e-05 -0.000111104     -165.228 
         100         1.92 -0.000128031  -0.00012077     -165.228 
         100      2.25333 -0.000208721 -0.000125062     -165.228 
         100      2.61333 -0.000268209 -0.000124375     -165.228 
         100            3   -0.0003127  -0.00012016     -165.228 
         150            0 -2.44716e-19 -5.00889e-25       -156.1 
         150     0.013333 -0.000292748  1.32234e-07       -156.1 
         150     0.053333 -0.000586578  1.70764e-06       -156.1 
         150         0.12 -0.000989013  5.88201e-06       -156.1 
         150     0.213332  -0.00132962  1.03298e-05       -156.1 
         150     0.333332  -0.00150408  1.03041e-05       -156.1 
         150         0.48  -0.00154198   3.0079e-06       -156.1 
         150     0.653331  -0.00151605 -1.01484e-05       -156.1 
         150     0.853332   -0.0014288  -2.4273e-05       -156.1 
         150         1.08  -0.00124408 -3.48923e-05       -156.1 
         150      1.33333 -0.000998627  -4.1558e-05       -156.1 
         150      1.61333  -0.00073983 -4.66686e-05       -156.1 
         150         1.92 -0.000462014 -4.98216e-05       -156.1 
         150      2.25333 -0.000215663  -5.0174e-05       -156.1 
         150      2.61333 -2.37445e-05 -4.89971e-05       -156.1 
         150            3  0.000109206 -4.64627e-05       -156.1 
         200            0            0            0     -147.087 
         200     0.013333 -0.000184768  -6.6053e-08     -147.087 
         200     0.053333 -0.000160181 -1.00766e-06     -147.087 
         200         0.12 -9.73026e-05 -4.60499e-06     -147.087 
         200     0.213332  3.46911e-06  -1.2183e-05     -147.087 
         200     0.333332  9.13042e-05 -2.31354e-05     -147.087 
         200         0.48   0.00012511 -3.54505e-05     -147.087 
         200     0.653331  0.000107263  -4.7487e-05     -147.087 
         200     0.853332  6.52555e-05 -5.83744e-05     -147.087 
         200         1.08  2.60668e-05 -6.71849e-05     -147.087 
         200      1.33333 -4.39613e-06 -7.32545e-05     -147.087 
         200      1.61333 -4.00955e-05 -7.66527e-05     -147.087 
         200         1.92 -8.55241e-05 -7.71638e-05     -147.087 
         200      2.25333  -0.00013021 -7.46318e-05     -147.087 
         200      2.61333 -0.000169201 -6.92559e-05     -147.087 
         200            3 -0.000199249 -6.15561e-05     -147.087 
         250            0            0            0     -138.114 
         250     0.013333  -0.00023291 -1.62904e-07     -138.114 
         250     0.053333 -0.000308006 -2.47491e-06     -138.114 
         250         0.12  -0.00030167 -1.13476e-05     -138.114 
         250     0.213332 -0.000157292 -3.07784e-05     -138.114 
         250     0.333332  5.43864e-05 -6.14857e-05     -138.114 
         250         0.48  0.000228323 -0.000101237     -138.114 
         250     0.653331  0.000307583 -0.000147654     -138.114 
         250     0.853332  0.000282714 -0.000199551     -138.114 
         250         1.08  0.000185862  -0.00025481     -138.114 
         250      1.33333  8.92472e-05 -0.000308489     -138.114 
         250      1.61333  2.20719e-05 -0.000355157     -138.114 
         250         1.92 -4.98071e-05 -0.000390875     -138.114 
         250      2.25333 -0.000115664 -0.000412611     -138.114 
         250      2.61333 -0.000172301 -0.000418936     -138.114 
         250            3 -0.000221422 -0.000410327     -138.114 
         300            0            0            0     -129.153 
         300     0.013333 -0.000345798   9.7629e-08     -129.153 
         300     0.053333   -0.0007694  1.12302e-06     -129.153 
         300         0.12  -0.00129125  2.81381e-06     -129.153 
         300     0.213332  -0.00165854  5.63896e-07     -129.153 
         300     0.333332  -0.00174616 -1.24878e-05     -129.153 
         300         0.48  -0.00163738 -3.95002e-05     -129.153 
         300     0.653331  -0.00148312  -7.7574e-05     -129.153 
         300     0.853332  -0.00133853 -0.000120375     -129.153 
         300         1.08  -0.00116926 -0.000162135     -129.153 
         300      1.33333 -0.000962475 -0.000200093     -129.153 
         300      1.61333 -0.000743872 -0.000233886     -129.153 
         300         1.92 -0.000516116 -0.000261501     -129.153 
         300      2.25333 -0.000294813 -0.000280196     -129.153 
         300      2.61333 -9.58786e-05   -0.0002889     -129.153 
         300            3  6.58204e-05 -0.000287223     -129.153 
         350            0           -0           -0     -120.197 
         350     0.013333 -0.000321855  5.13273e-07     -120.197 
         350     0.053333 -0.000803005  7.32473e-06     -120.197 
         350         0.12  -0.00167837  3.04946e-05     -120.197 
         350     0.213332  -0.00268865  7.32165e-05     -120.197 
         350     0.333332  -0.00344458  0.000127327     -120.197 
         350         0.48  -0.00377675  0.000181686     -120.197 
         350     0.653331  -0.00377412   0.00023271     -120.197 
         350     0.853332  -0.00353383  0.000285527     -120.197 
         350         1.08  -0.00307875  0.000345494     -120.197 
         350      1.33333  -0.00251499   0.00040903     -120.197 
         350      1.61333  -0.00197055  0.000465938     -120.197 
         350         1.92  -0.00140225  0.000510133     -120.197 
         350      2.25333 -0.000832719  0.000538982     -120.197 
         350      2.61333 -0.000297723  0.000549756     -120.197 
         350            3  0.000164402  0.000541675     -120.197 
         400            0            0            0     -111.239 
         400     0.013333 -1.50577e-05  1.99994e-07     -111.239 
         400     0.053333  0.000367579  3.19347e-06     -111.239 
         400         0.12  0.000664164  1.55905e-05     -111.239 
         400     0.213332  0.000694597  4.49763e-05     -111.239 
         400     0.333332  0.000512061  9.47066e-05     -111.239 
         400         0.48    0.0003025  0.000162438     -111.239 
         400     0.653331  0.000202968  0.000243881     -111.239 
         400     0.853332  0.000243725  0.000335527     -111.239 
         400         1.08  0.000351024  0.000432113     -111.239 
         400      1.33333  0.000382943   0.00052435     -111.239 
         400      1.61333  0.000294355  0.000604027     -111.239 
         400         1.92  0.000179361  0.000667335     -111.239 
         400      2.25333  6.11457e-05  0.000710565     -111.239 
         400      2.61333 -5.69632e-05  0.000730366     -111.239 
         400            3 -0.000166506  0.000725098     -111.239 
         450            0            0            0     -102.281 
         450     0.013333 -9.29868e-05 -5.82785e-08     -102.281 
         450     0.053333  0.000155647 -6.84086e-07     -102.281 
         450         0.12  0.000444557 -1.84026e-06     -102.281 
         450     0.213332  0.000646707 -1.10476e-06     -102.281 
         450     0.333332  0.000694502  5.18513e-06     -102.281 
         450         0.48  0.000635559  1.86124e-05     -102.281 
         450     0.653331  0.000557327  3.73318e-05     -102.281 
         450     0.853332  0.000490649  5.74911e-05     -102.281 
         450         1.08  0.000403252  7.52656e-05     -102.281 
         450      1.33333  0.000277084  8.89355e-05     -102.281 
         450      1.61333  0.000146613  9.96051e-05     -102.281 
         450         1.92  2.98401e-05  0.000108266     -102.281 
         450      2.25333 -8.08115e-05  0.000114164     -102.281 
         450      2.61333 -0.000185593  0.000116703     -102.281 
         450            3 -0.000276751  0.000115633     -102.281 
         500            0           -0           -0     -93.3209 
         500     0.013333 -0.000235662 -2.98553e-07     -93.3209 
         500     0.053333 -0.000273801 -4.52563e-06     -93.3209 
         500         0.12 -0.000112887 -2.06583e-05     -93.3209 
         500     0.213332  0.000304714 -5.55989e-05     -93.3209 
         500     0.333332  0.000800856 -0.000109591     -93.3209 
         500         0.48    0.0011525 -0.000176891     -93.3209 
         500     0.653331   0.00127135 -0.000251858     -93.3209 
         500     0.853332   0.00118381 -0.000332425     -93.3209 
         500         1.08  0.000962235 -0.000417142     -93.3209 
         500      1.33333  0.000725245   -0.0005006     -93.3209 
         500      1.61333  0.000549633 -0.000575734     -93.3209 
         500         1.92  0.000381441 -0.000638245     -93.3209 
         500      2.25333  0.000200875  -0.00068495     -93.3209 
         500      2.61333  1.65045e-05 -0.000712227     -93.3209 
         500            3 -0.000155885 -0.000717304     -93.3209 
         550            0           -0           -0     -84.3606 
         550     0.013333 -0.000244567  2.34452e-07     -84.3606 
         550     0.053333 -0.000461041  3.37392e-06     -84.3606 
         550         0.12 -0.000887579  1.42887e-05     -84.3606 
         550     0.213332  -0.00141999  3.52649e-05     -84.3606 
         550     0.333332  -0.00187097  6.36102e-05     -84.3606 
         550         0.48  -0.00212782  9.44236e-05     -84.3606 
         550     0.653331  -0.00220911  0.000125028     -84.3606 
         550     0.853332  -0.00216774  0.000156629     -84.3606 
         550         1.08  -0.00200537  0.000192691     -84.3606 
         550      1.33333  -0.00172724   0.00023446     -84.3606 
         550      1.61333  -0.00141514  0.000277672     -84.3606 
         550         1.92  -0.00111872  0.000316587     -84.3606 
         550      2.25333 -0.000819625  0.000348222     -84.3606 
         550      2.61333 -0.000515656  0.000370606     -84.3606 
         550            3 -0.000227169   0.00038215     -84.3606 
         600            0 -2.16636e-19  1.20514e-26     -75.3971 
         600     0.013333 -0.000210494 -1.49508e-07     -75.3971 
         600     0.053333 -0.000226022 -2.27218e-06     -75.3971 
         600         0.12 -0.000139644 -1.04533e-05     -75.3971 
         600     0.213332   9.4289e-05 -2.85481e-05     -75.3971 
         600     0.333332  0.000393192 -5.73783e-05     -75.3971 
         600         0.48  0.000631818  -9.4423e-05     -75.3971 
         600     0.653331  0.000746134 -0.000136291     -75.3971 
         600     0.853332  0.000745236 -0.000180988     -75.3971 
         600         1.08  0.000664202  -0.00022772     -75.3971 
         600      1.33333  0.000542045 -0.000275326     -75.3971 
         600      1.61333  0.000414477 -0.000321408     -75.3971 
         600         1.92  0.000291089 -0.000362946     -75.3972 
         600      2.25333  0.000163739 -0.000397121     -75.3972 
         600      2.61333  3.17726e-05   -0.0004215     -75.3972 
         600            3 -9.73357e-05 -0.000434189     -75.3972 
         650            0           -0           -0     -66.4328 
         650     0.013333 -7.20068e-05  2.42066e-07     -66.4328 
         650     0.053333  0.000146134  3.77728e-06     -66.4328 
         650         0.12  0.000190948  1.79988e-05     -66.4328 
         650     0.213332 -7.62032e-05  5.09501e-05     -66.4328 
         650     0.333332 -0.000542695  0.000105705     -66.4328 
         650         0.48 -0.000962247  0.000178485     -66.4328 
         650     0.653331  -0.00117395  0.000262771     -66.4328 
         650     0.853332  -0.00116708  0.000353833     -66.4328 
         650         1.08  -0.00102075  0.000448425     -66.4328 
         650      1.33333 -0.000850901  0.000541845     -66.4328 
         650      1.61333 -0.000733889  0.000628562     -66.4328 
         650         1.92 -0.000637736  0.000704742     -66.4328 
         650      2.25333 -0.000531177  0.000766735     -66.4328 
         650      2.61333 -0.000412957  0.000810505     -66.4328 
         650            3 -0.000293642  0.000832368     -66.4328 
         700            0            0            0     -57.4655 
         700     0.013333 -0.000397094 -3.47398e-07     -57.4655 
         700     0.053333 -0.000829502 -5.47518e-06     -57.4655 
         700         0.12  -0.00106703 -2.64443e-05     -57.4655 
         700     0.213332 -0.000816231 -7.59914e-05     -57.4655 
         700     0.333332  -0.00019066 -0.000160074     -57.4655 
         700         0.48  0.000441965 -0.000274235     -57.4655 
         700     0.653331  0.000800327 -0.000409079     -57.4655 
         700     0.853332  0.000827658 -0.000557248     -57.4655 
         700         1.08  0.000625625  -0.00071331     -57.4655 
         700      1.33333  0.000386018 -0.000868944     -57.4655 
         700      1.61333  0.000259367  -0.00101394     -57.4655 
         700         1.92  0.000199343  -0.00114187     -57.4655 
         700      2.25333  0.000131869  -0.00124775     -57.4655 
         700      2.61333  4.56016e-05  -0.00132527     -57.4655 
         700            3 -4.20115e-05  -0.00136821     -57.4655 
         750            0            0            0     -48.4952 
         750     0.013333  0.000191749  2.01527e-07     -48.4952 
         750     0.053333   0.00111071  3.42952e-06     -48.4952 
         750         0.12    0.0020298  1.82061e-05     -48.4952 
         750     0.213332   0.00246874  5.73757e-05     -48.4952 
         750     0.333332   0.00231971  0.000131178     -48.4952 
         750         0.48   0.00185972  0.000240888     -48.4952 
         750     0.653331    0.0014475  0.000380229     -48.4952 
         750     0.853332   0.00127314  0.000541119     -48.4952 
         750         1.08   0.00130675  0.000715163     -48.4952 
         750      1.33333   0.00134766  0.000890824     -48.4952 
         750      1.61333    0.0012133   0.00105545     -48.4952 
         750         1.92  0.000956045   0.00120237     -48.4952 
         750      2.25333  0.000672172   0.00132689     -48.4952 
         750      2.61333  0.000388047   0.00142265     -48.4952 
         750            3  0.000101137   0.00148276     -48.4952 
         800            0           -0           -0     -39.5231 
         800     0.013333 -0.000303077  1.01709e-07     -39.5231 
         800     0.053333 -0.000638755  1.38242e-06     -39.5231 
         800         0.12  -0.00114224   5.3421e-06     -39.5231 
         800     0.213332  -0.00166813  1.16345e-05     -39.5231 
         800     0.333332  -0.00207942   1.7837e-05     -39.5231 
         800         0.48   -0.0023285   2.1365e-05     -39.5231 
         800     0.653331  -0.00245702  2.10203e-05     -39.5231 
         800     0.853332  -0.00252529  1.73274e-05     -39.5231 
         800         1.08  -0.00253879   1.2966e-05     -39.5231 
         800      1.33333  -0.00242974  1.27283e-05     -39.5231 
         800      1.61333  -0.00215899  2.02249e-05     -39.5231 
         800         1.92  -0.00181349  3.32826e-05     -39.5231 
         800      2.25333  -0.00145412  4.82087e-05     -39.5231 
         800      2.61333  -0.00108837  6.33061e-05     -39.5231 
         800            3  -0.00071301  7.80005e-05      -39.523 
         850            0           -0           -0     -30.5458 
         850     0.013333  -0.00028714  1.45845e-07     -30.5458 
         850     0.053333 -0.000596944  2.09645e-06     -30.5458 
         850         0.12  -0.00110853  8.81375e-06     -30.5458 
         850     0.213332  -0.00168478  2.12632e-05     -30.5458 
         850     0.333332  -0.00213497  3.64676e-05     -30.5458 
         850         0.48  -0.00234937  4.95129e-05     -30.5458 
         850     0.653331  -0.00235951  5.75433e-05     -30.5458 
         850     0.853332  -0.00225346  6.14627e-05     -30.5458 
         850         1.08  -0.00208007     6.42e-05     -30.5458 
         850      1.33333  -0.00186048  6.72468e-05     -30.5458 
         850      1.61333  -0.00163088  6.94841e-05     -30.5458 
         850         1.92  -0.00140193  6.96915e-05     -30.5458 
         850      2.25333  -0.00115182   6.8275e-05     -30.5458 
         850      2.61333 -0.000878034  6.56355e-05     -30.5457 
         850            3 -0.000594031  6.16912e-05     -30.5457 
         900            0 -2.42931e-19  4.79216e-26     -21.5641 
         900     0.013333 -0.000279074 -2.38207e-07     -21.5641 
         900     0.053333 -0.000439636 -3.68007e-06     -21.5641 
         900         0.12 -0.000444847 -1.73224e-05     -21.5641 
         900     0.213332 -0.000152639 -4.85333e-05     -21.5641 
         900     0.333332  0.000332721 -0.000100015     -21.5641 
         900         0.48  0.000774758 -0.000168279     -21.5641 
         900     0.653331   0.00101182 -0.000247458     -21.5641 
         900     0.853332   0.00102276 -0.000333812     -21.5641 
         900         1.08  0.000861308 -0.000425913     -21.5641 
         900      1.33333  0.000626313 -0.000520857     -21.5641 
         900      1.61333  0.000439246 -0.000612542     -21.5641 
         900         1.92  0.000332856 -0.000695283     -21.5642 
         900      2.25333  0.000237862 -0.000766737     -21.5642 
         900      2.61333  0.000126956 -0.000823716     -21.5642 
         900            3  1.12725e-05 -0.000862548     -21.5642 
         950            0           -0           -0     -12.5799 
         950     0.013333  0.000106831 -5.59563e-08     -12.5799 
         950     0.053333  0.000892408 -5.48922e-07     -12.5799 
         950         0.12   0.00186927 -4.81123e-07     -12.5799 
         950     0.213332   0.00266634  5.33735e-06     -12.5799 
         950     0.333332   0.00302951   2.4965e-05     -12.5799 
         950         0.48   0.00298452  6.40428e-05     -12.5799 
         950     0.653331   0.00275388  0.000122268     -12.5799 
         950     0.853332   0.00253941   0.00019464     -12.5799 
         950         1.08   0.00238893  0.000274197     -12.5799 
         950      1.33333   0.00221745  0.000353652     -12.5799 
         950      1.61333   0.00194117  0.000427364     -12.5799 
         950         1.92   0.00159042  0.000494031     -12.5799 
         950      2.25333   0.00122152  0.000553225     -12.5799 
         950      2.61333  0.000845613  0.000602928     -12.5799 
         950            3  0.000455435   0.00064007     -12.5799 
        1000            0           -0           -0     -3.59532 
        1000     0.013333 -4.88938e-05  2.92197e-07     -3.59532 
        1000     0.053333  0.000217843  4.42861e-06     -3.59532 
        1000         0.12  0.000282261  2.06229e-05     -3.59532 
        1000     0.213332 -4.25349e-05  5.73783e-05     -3.59532 
        1000     0.333332 -0.000654081  0.000117933     -3.59532 
        1000         0.48  -0.00126469   0.00019863     -3.59532 
        1000     0.653331  -0.00164957  0.000292917     -3.59532 
        1000     0.853332  -0.00175331  0.000396399     -3.59532 
        1000         1.08  -0.00162276  0.000507697     -3.59532 
        1000      1.33333  -0.00135044  0.000624886     -3.59532 
        1000      1.61333  -0.00106829  0.000742323     -3.59532 
        1000         1.92 -0.000857967  0.000852569     -3.59531 
        1000      2.25333  -0.00067882  0.000950442     -3.59531 
        1000      2.61333 -0.000494638   0.00103141      -3.5953 
        1000            3 -0.000305434     0.001091     -3.59529 
