Variables = x, y, u, v, p

Zone, I=416, F=POINT
         -50            0            0            0      9.45931 
         -50     0.013333  5.52685e-05  2.85273e-08      9.45931 
         -50     0.053333  4.62841e-05  2.47209e-07      9.45931 
         -50         0.12  3.25552e-05  9.16152e-07      9.45931 
         -50     0.213332    1.405e-05  2.20454e-06       9.4593 
         -50     0.333332 -1.91895e-06  3.99267e-06      9.45929 
         -50         0.48 -1.15319e-05   5.0085e-06      9.45928 
         -50     0.653331 -1.39672e-05  6.93466e-06      9.45925 
         -50     0.853332 -7.99909e-06  8.78337e-06       9.4592 
         -50         1.08  4.28156e-06  1.01988e-05      9.45913 
         -50      1.33333  1.81579e-05  1.15796e-05      9.45903 
         -50      1.61333  3.05989e-05  1.20781e-05       9.4589 
         -50         1.92  4.14054e-05  1.16924e-05      9.45873 
         -50      2.25333  5.37798e-05  1.08284e-05      9.45852 
         -50      2.61333  6.02943e-05  6.96183e-06      9.45824 
         -50            3  5.59006e-05 -4.48367e-07       9.4579 
         -25            0           -0           -0      9.07704 
         -25     0.013333  3.76709e-05  -2.9013e-09      9.07704 
         -25     0.053333   2.8842e-05 -9.75597e-08      9.07704 
         -25         0.12  2.64496e-05 -5.11486e-07      9.07704 
         -25     0.213332  3.14196e-05 -1.47533e-06      9.07704 
         -25     0.333332  4.09745e-05 -3.06662e-06      9.07704 
         -25         0.48  4.96027e-05 -5.16144e-06      9.07703 
         -25     0.653331  5.36294e-05 -7.80609e-06      9.07702 
         -25     0.853332  5.37502e-05  -1.0547e-05        9.077 
         -25         1.08  5.35536e-05 -1.29799e-05      9.07698 
         -25      1.33333  5.35416e-05 -1.48571e-05      9.07694 
         -25      1.61333  5.31945e-05 -1.56796e-05      9.07689 
         -25         1.92  5.31597e-05 -1.62787e-05      9.07683 
         -25      2.25333  5.63556e-05 -1.42199e-05      9.07675 
         -25      2.61333  6.07106e-05 -1.15425e-05      9.07665 
         -25            3  6.05723e-05 -1.29506e-05      9.07652 
           0            0            0            0      8.76251 
           0     0.013333  9.96586e-05 -6.35969e-05      8.76302 
           0     0.053333  5.35096e-05 -3.17814e-05      8.76363 
           0         0.12   3.4102e-05 -2.24325e-05      8.76431 
           0     0.213332  2.78218e-05 -1.80277e-05      8.76503 
           0     0.333332  2.80653e-05 -1.63245e-05      8.76577 
           0         0.48  2.85224e-05 -1.62613e-05       8.7665 
           0     0.653331  2.62049e-05 -1.73576e-05      8.76723 
           0     0.853332  2.33344e-05 -1.91503e-05      8.76795 
           0         1.08  2.45181e-05 -2.11642e-05      8.76864 
           0      1.33333  3.07224e-05 -2.29788e-05      8.76931 
           0      1.61333  3.80501e-05 -2.43031e-05      8.76995 
           0         1.92   4.2884e-05 -2.47351e-05      8.77056 
           0      2.25333  4.34817e-05 -2.42122e-05      8.77113 
           0      2.61333  4.22965e-05 -2.25182e-05      8.77167 
           0            3  4.25379e-05 -2.17471e-05      8.77217 
          20            0            0            0      8.58895 
          20     0.013333 -0.000294126 -0.000231093      8.58848 
          20     0.053333 -0.000469721 -0.000339006      8.58789 
          20         0.12 -0.000370589 -0.000239643      8.58725 
          20     0.213332 -0.000257148 -0.000143575      8.58657 
          20     0.333332 -0.000199554 -8.30107e-05      8.58588 
          20         0.48 -0.000191959 -5.00688e-05      8.58518 
          20     0.653331 -0.000203159  -3.6264e-05      8.58448 
          20     0.853332 -0.000191221  -3.3535e-05       8.5838 
          20         1.08 -0.000143819 -3.57412e-05      8.58313 
          20      1.33333 -7.79115e-05 -3.96939e-05      8.58247 
          20      1.61333 -4.01165e-06 -4.36567e-05      8.58184 
          20         1.92  6.60663e-05 -4.62814e-05      8.58122 
          20      2.25333  0.000118084 -4.68559e-05      8.58062 
          20      2.61333  0.000144911  -4.6423e-05      8.58004 
          20            3  0.000140746 -4.90238e-05      8.57948 
          40            0  4.41171e-20  1.12477e-24      8.37811 
          40     0.013333 -1.77611e-06   6.7311e-08      8.37811 
          40     0.053333 -9.70632e-05  8.71736e-07      8.37811 
          40         0.12 -0.000229942  3.15964e-06      8.37811 
          40     0.213332  -0.00035508  6.34466e-06      8.37811 
          40     0.333332 -0.000441356  8.99553e-06      8.37811 
          40         0.48 -0.000491615  1.05854e-05      8.37811 
          40     0.653331  -0.00051104  1.22446e-05      8.37811 
          40     0.853332 -0.000491357  1.55359e-05       8.3781 
          40         1.08 -0.000423483  2.05292e-05       8.3781 
          40      1.33333 -0.000308642  2.66011e-05      8.37809 
          40      1.61333 -0.000174685  3.23303e-05      8.37808 
          40         1.92 -3.67804e-05  3.67662e-05      8.37807 
          40      2.25333  7.09449e-05  3.97648e-05      8.37806 
          40      2.61333  0.000139809  4.06575e-05      8.37805 
          40            3  0.000176464  3.96751e-05      8.37803 
          60            0  3.82448e-20  2.87581e-25      8.18996 
          60     0.013333  4.75636e-05   -1.606e-08      8.18996 
          60     0.053333  9.75756e-05 -2.15761e-07      8.18996 
          60         0.12  0.000162692 -7.27898e-07      8.18996 
          60     0.213332  0.000209796 -1.02327e-06      8.18996 
          60     0.333332  0.000219849  5.69399e-08      8.18996 
          60         0.48  0.000203238  3.31698e-06      8.18996 
          60     0.653331  0.000180612  8.51552e-06      8.18996 
          60     0.853332  0.000159512  1.48751e-05      8.18996 
          60         1.08  0.000141567  2.21706e-05      8.18995 
          60      1.33333  0.000121717  3.00026e-05      8.18995 
          60      1.61333  9.09548e-05  3.71569e-05      8.18994 
          60         1.92   5.6577e-05  4.25716e-05      8.18993 
          60      2.25333  3.23161e-05  4.58227e-05      8.18992 
          60      2.61333  1.69015e-05  4.69868e-05       8.1899 
          60            3  2.77892e-06  4.63407e-05      8.18988 
          80            0            0            0      8.00796 
          80     0.013333  4.29455e-05 -1.09869e-07      8.00796 
          80     0.053333  0.000107433 -1.59853e-06      8.00796 
          80         0.12  0.000245889 -6.80594e-06      8.00796 
          80     0.213332  0.000419512 -1.67191e-05      8.00796 
          80     0.333332   0.00055735 -2.97413e-05      8.00796 
          80         0.48  0.000623419 -4.34586e-05      8.00796 
          80     0.653331  0.000620889 -5.69913e-05      8.00796 
          80     0.853332  0.000556482 -7.08695e-05      8.00795 
          80         1.08   0.00045097 -8.45983e-05      8.00795 
          80      1.33333  0.000341909 -9.63108e-05      8.00795 
          80      1.61333  0.000235109 -0.000104314      8.00794 
          80         1.92  0.000116028 -0.000107718      8.00793 
          80      2.25333  1.81704e-05 -0.000106392      8.00792 
          80      2.61333  -5.0634e-05 -0.000100731       8.0079 
          80            3 -9.39697e-05 -9.17166e-05      8.00788 
         100            0            0            0      7.82945 
         100     0.013333  -2.0974e-05  -8.7879e-08      7.82945 
         100     0.053333  -0.00012365 -1.36933e-06      7.82945 
         100         0.12 -0.000187677  -6.4544e-06      7.82945 
         100     0.213332 -0.000166087 -1.79822e-05      7.82945 
         100     0.333332 -8.69536e-05 -3.69232e-05      7.82945 
         100         0.48 -1.28822e-05 -6.27011e-05      7.82945 
         100     0.653331  9.18045e-06 -9.43849e-05      7.82945 
         100     0.853332 -2.13345e-05 -0.000130148      7.82945 
         100         1.08 -4.76475e-05 -0.000165778      7.82944 
         100      1.33333 -3.49374e-05 -0.000196898      7.82944 
         100      1.61333 -1.22764e-05 -0.000221567      7.82944 
         100         1.92  1.54619e-06 -0.000237078      7.82944 
         100      2.25333  1.53585e-05 -0.000241961      7.82943 
         100      2.61333  2.62834e-05 -0.000237006      7.82943 
         100            3  3.36335e-05 -0.000223542      7.82942 
         150            0  1.95669e-20  4.03827e-26       7.3923 
         150     0.013333  9.11305e-07 -6.79237e-08       7.3923 
         150     0.053333 -4.76991e-05 -1.07208e-06       7.3923 
         150         0.12 -5.69473e-05 -5.08449e-06       7.3923 
         150     0.213332 -1.03484e-05 -1.39845e-05       7.3923 
         150     0.333332  5.04104e-05 -2.77133e-05       7.3923 
         150         0.48  7.76114e-05 -4.46215e-05       7.3923 
         150     0.653331  6.03729e-05 -6.31248e-05       7.3923 
         150     0.853332  2.27291e-05 -8.16385e-05       7.3923 
         150         1.08  4.33039e-06 -9.77652e-05       7.3923 
         150      1.33333  1.16722e-05 -0.000109904       7.3923 
         150      1.61333  2.09586e-05 -0.000118095       7.3923 
         150         1.92  2.61098e-05 -0.000121579      7.39229 
         150      2.25333  2.95351e-05 -0.000119906      7.39229 
         150      2.61333  3.29183e-05 -0.000113559      7.39229 
         150            3  3.71489e-05 -0.000103684      7.39229 
         200            0            0            0      6.96083 
         200     0.013333  6.95382e-05 -1.80991e-08      6.96083 
         200     0.053333  0.000178215 -1.64497e-07      6.96083 
         200         0.12  0.000302933 -8.46474e-08      6.96083 
         200     0.213332  0.000382827  1.61273e-06      6.96083 
         200     0.333332  0.000400506  6.42147e-06      6.96083 
         200         0.48  0.000385216  1.46568e-05      6.96083 
         200     0.653331  0.000369642  2.53787e-05      6.96083 
         200     0.853332  0.000353649  3.66896e-05      6.96083 
         200         1.08  0.000311107  4.62811e-05      6.96083 
         200      1.33333  0.000241528  5.30783e-05      6.96083 
         200      1.61333  0.000169733  5.78885e-05      6.96083 
         200         1.92  9.68012e-05  6.05909e-05      6.96082 
         200      2.25333  3.24577e-05  6.07772e-05      6.96081 
         200      2.61333 -1.65885e-05  5.87739e-05      6.96081 
         200            3 -4.95369e-05  5.47492e-05       6.9608 
         250            0            0            0      6.53153 
         250     0.013333  0.000105734 -1.07575e-07      6.53153 
         250     0.053333  0.000329106 -1.43309e-06      6.53153 
         250         0.12  0.000633082  -5.2414e-06      6.53153 
         250     0.213332  0.000887791 -1.01029e-05      6.53153 
         250     0.333332  0.000996876  -1.2073e-05      6.53153 
         250         0.48  0.000974858 -8.33432e-06      6.53153 
         250     0.653331  0.000893224  4.03027e-07      6.53153 
         250     0.853332  0.000788355  1.11669e-05      6.53153 
         250         1.08  0.000662121  2.17999e-05      6.53153 
         250      1.33333  0.000525698  3.19913e-05      6.53153 
         250      1.61333  0.000385228  4.20049e-05      6.53152 
         250         1.92   0.00023294  5.08699e-05      6.53152 
         250      2.25333  8.72716e-05  5.78225e-05       6.5315 
         250      2.61333 -4.01596e-05  6.25086e-05      6.53149 
         250            3 -0.000141431   6.4658e-05      6.53147 
         300            0            0            0      6.10341 
         300     0.013333  0.000167424 -2.21138e-07      6.10341 
         300     0.053333  0.000575643 -2.96628e-06      6.10341 
         300         0.12   0.00115176 -1.10869e-05      6.10341 
         300     0.213332   0.00167134 -2.26113e-05      6.10341 
         300     0.333332   0.00195336 -3.10447e-05      6.10341 
         300         0.48   0.00200689 -3.15973e-05      6.10341 
         300     0.653331   0.00194494 -2.54104e-05      6.10341 
         300     0.853332   0.00180983 -1.84579e-05      6.10341 
         300         1.08    0.0015648 -1.65941e-05      6.10341 
         300      1.33333    0.0012426 -1.99708e-05      6.10341 
         300      1.61333   0.00092329 -2.38547e-05       6.1034 
         300         1.92  0.000593802 -2.66172e-05      6.10338 
         300      2.25333  0.000273835 -2.87055e-05      6.10336 
         300      2.61333  -1.4914e-05 -2.96243e-05      6.10333 
         300            3 -0.000252901 -2.94049e-05      6.10329 
         350            0           -0           -0      5.67512 
         350     0.013333  3.09514e-05 -3.83924e-08      5.67512 
         350     0.053333  4.38385e-05 -4.86228e-07      5.67512 
         350         0.12  6.05277e-05 -1.65015e-06      5.67512 
         350     0.213332  6.10059e-05 -2.97411e-06      5.67512 
         350     0.333332  4.53456e-05 -3.73733e-06      5.67512 
         350         0.48  3.74435e-05 -4.35979e-06      5.67512 
         350     0.653331  4.90625e-05 -6.43821e-06      5.67512 
         350     0.853332  5.57988e-05 -1.20406e-05      5.67512 
         350         1.08  2.21154e-05 -2.27576e-05      5.67512 
         350      1.33333  -3.5775e-05 -3.76485e-05      5.67512 
         350      1.61333 -6.46462e-05 -5.31201e-05      5.67512 
         350         1.92 -6.94181e-05 -6.68933e-05      5.67511 
         350      2.25333 -6.46632e-05 -7.84398e-05      5.67511 
         350      2.61333 -5.35154e-05 -8.69711e-05      5.67511 
         350            3  -3.5809e-05 -9.19234e-05       5.6751 
         400            0            0            0       5.2485 
         400     0.013333  0.000226603 -1.34165e-07       5.2485 
         400     0.053333  0.000769541 -1.66607e-06       5.2485 
         400         0.12   0.00146605 -5.21361e-06       5.2485 
         400     0.213332   0.00202734 -6.68534e-06       5.2485 
         400     0.333332   0.00226677  1.46759e-06       5.2485 
         400         0.48   0.00223136  2.41406e-05      5.24851 
         400     0.653331   0.00209006  5.99947e-05      5.24851 
         400     0.853332   0.00193661  0.000103022      5.24851 
         400         1.08    0.0017397  0.000146103      5.24851 
         400      1.33333    0.0014645  0.000184985       5.2485 
         400      1.61333    0.0011499   0.00021969       5.2485 
         400         1.92  0.000818473  0.000249799      5.24848 
         400      2.25333  0.000480435  0.000272837      5.24846 
         400      2.61333   0.00015371  0.000287145      5.24844 
         400            3 -0.000135631  0.000291722       5.2484 
         450            0            0            0        4.821 
         450     0.013333 -0.000137446 -1.22659e-07        4.821 
         450     0.053333 -0.000526992 -2.01907e-06        4.821 
         450         0.12 -0.000898596 -1.02681e-05        4.821 
         450     0.213332  -0.00105542 -3.09821e-05        4.821 
         450     0.333332 -0.000981919 -6.82131e-05        4.821 
         450         0.48 -0.000809777 -0.000121835        4.821 
         450     0.653331 -0.000677472 -0.000189171        4.821 
         450     0.853332  -0.00064705 -0.000267185        4.821 
         450         1.08 -0.000685819 -0.000351624        4.821 
         450      1.33333 -0.000685611 -0.000435266        4.821 
         450      1.61333 -0.000586097 -0.000510796        4.821 
         450         1.92 -0.000446697 -0.000574189        4.821 
         450      2.25333 -0.000297336 -0.000621809      4.82101 
         450      2.61333  -0.00014695 -0.000650231      4.82101 
         450            3 -5.09844e-06 -0.000657155      4.82102 
         500            0           -0           -0      4.39523 
         500     0.013333  9.57036e-05  3.92727e-08      4.39523 
         500     0.053333  0.000260991  6.72298e-07      4.39523 
         500         0.12  0.000428776  3.57636e-06      4.39523 
         500     0.213332  0.000512445  1.12218e-05      4.39523 
         500     0.333332  0.000500678  2.54195e-05      4.39523 
         500         0.48  0.000447119  4.61634e-05      4.39523 
         500     0.653331  0.000409177  7.20816e-05      4.39523 
         500     0.853332   0.00040583  0.000101413      4.39523 
         500         1.08  0.000415108  0.000132127      4.39523 
         500      1.33333  0.000399843  0.000161872      4.39522 
         500      1.61333  0.000349141   0.00018876      4.39522 
         500         1.92   0.00028205  0.000211582      4.39522 
         500      2.25333  0.000208191  0.000228887      4.39522 
         500      2.61333  0.000131779  0.000239471      4.39522 
         500            3  5.72488e-05  0.000242461      4.39521 
         550            0           -0           -0      3.96962 
         550     0.013333  2.92703e-05  -8.5113e-08      3.96962 
         550     0.053333  5.95054e-05 -1.25685e-06      3.96962 
         550         0.12  0.000156647 -5.52544e-06      3.96962 
         550     0.213332  0.000309302 -1.42452e-05      3.96962 
         550     0.333332  0.000458955 -2.68973e-05      3.96962 
         550         0.48  0.000554448 -4.17738e-05      3.96962 
         550     0.653331  0.000586699 -5.77267e-05      3.96962 
         550     0.853332  0.000566238 -7.49391e-05      3.96962 
         550         1.08  0.000500767 -9.39501e-05      3.96962 
         550      1.33333  0.000413223 -0.000113915      3.96962 
         550      1.61333  0.000336777 -0.000132606      3.96961 
         550         1.92  0.000267259 -0.000148378      3.96961 
         550      2.25333  0.000194314 -0.000160571      3.96961 
         550      2.61333  0.000118103 -0.000168413       3.9696 
         550            3  4.47029e-05 -0.000171139       3.9696 
         600            0  4.01012e-20  3.10062e-27      3.54449 
         600     0.013333  5.86793e-05 -5.81165e-08      3.54449 
         600     0.053333  0.000159734 -8.58974e-07      3.54449 
         600         0.12  0.000330207 -3.74435e-06      3.54449 
         600     0.213332    0.0005232  -9.3573e-06      3.54449 
         600     0.333332   0.00066245  -1.6496e-05      3.54449 
         600         0.48  0.000700183 -2.27746e-05      3.54449 
         600     0.653331  0.000649758 -2.65426e-05      3.54449 
         600     0.853332  0.000556375 -2.75962e-05      3.54449 
         600         1.08  0.000463162 -2.60209e-05      3.54449 
         600      1.33333  0.000397576 -2.14421e-05      3.54449 
         600      1.61333  0.000350383 -1.42327e-05      3.54449 
         600         1.92   0.00029034  -5.8416e-06      3.54449 
         600      2.25333  0.000217763  3.01562e-06      3.54448 
         600      2.61333  0.000140469  1.18173e-05      3.54448 
         600            3  6.41899e-05  2.01428e-05      3.54447 
         650            0           -0           -0      3.11895 
         650     0.013333 -8.49362e-05  3.06174e-07      3.11895 
         650     0.053333 -0.000468242  4.43703e-06      3.11895 
         650         0.12   -0.0011492  1.89327e-05      3.11895 
         650     0.213332  -0.00197076  4.68519e-05      3.11895 
         650     0.333332  -0.00264091  8.38669e-05      3.11895 
         650         0.48  -0.00297705  0.000121926      3.11895 
         650     0.653331  -0.00301205   0.00015637      3.11895 
         650     0.853332  -0.00285799  0.000188632      3.11894 
         650         1.08  -0.00257074  0.000222829      3.11894 
         650      1.33333  -0.00219479  0.000259706      3.11895 
         650      1.61333  -0.00181258  0.000295113      3.11895 
         650         1.92   -0.0014404  0.000324926      3.11896 
         650      2.25333   -0.0010462  0.000347714      3.11897 
         650      2.61333 -0.000630698  0.000362196        3.119 
         650            3 -0.000220961  0.000366946      3.11903 
         700            0            0            0      2.69641 
         700     0.013333  8.16283e-05 -2.98292e-07      2.69641 
         700     0.053333  0.000307555 -4.32252e-06      2.69641 
         700         0.12  0.000779626 -1.84904e-05      2.69641 
         700     0.213332   0.00140291 -4.61686e-05      2.69641 
         700     0.333332   0.00195097 -8.43071e-05      2.69641 
         700         0.48   0.00227061 -0.000126838      2.69642 
         700     0.653331   0.00237293 -0.000170703      2.69642 
         700     0.853332   0.00231795  -0.00021809      2.69642 
         700         1.08   0.00210457 -0.000273759      2.69642 
         700      1.33333   0.00174728 -0.000338643      2.69642 
         700      1.61333   0.00137165 -0.000406193      2.69641 
         700         1.92   0.00106254 -0.000467969      2.69641 
         700      2.25333  0.000767253 -0.000520213      2.69639 
         700      2.61333  0.000461372 -0.000560318      2.69637 
         700            3  0.000162686 -0.000585711      2.69635 
         750            0            0            0      2.27216 
         750     0.013333 -0.000104208  5.51523e-08      2.27216 
         750     0.053333 -0.000452289  5.99092e-07      2.27216 
         750         0.12 -0.000869015  1.16341e-06      2.27216 
         750     0.213332  -0.00115453 -1.82106e-06      2.27216 
         750     0.333332  -0.00119363 -1.36739e-05      2.27216 
         750         0.48  -0.00105031 -3.70912e-05      2.27216 
         750     0.653331 -0.000879246 -6.98991e-05      2.27215 
         750     0.853332 -0.000766561 -0.000106676      2.27215 
         750         1.08 -0.000671624  -0.00014113      2.27215 
         750      1.33333 -0.000517898 -0.000168886      2.27215 
         750      1.61333 -0.000329514 -0.000190573      2.27216 
         750         1.92 -0.000189495 -0.000209894      2.27216 
         750      2.25333 -7.90628e-05 -0.000226867      2.27217 
         750      2.61333  2.47542e-05  -0.00024012      2.27218 
         750            3  0.000121573 -0.000248153      2.27219 
         800            0           -0           -0      1.85089 
         800     0.013333  0.000290407 -1.31173e-07      1.85089 
         800     0.053333   0.00101339   -1.647e-06      1.85089 
         800         0.12   0.00197027 -5.26425e-06      1.85089 
         800     0.213332   0.00280651 -7.02479e-06      1.85089 
         800     0.333332   0.00325056  1.11148e-06      1.85089 
         800         0.48   0.00329843  2.54618e-05      1.85089 
         800     0.653331   0.00315047  6.62036e-05       1.8509 
         800     0.853332   0.00298641   0.00011806       1.8509 
         800         1.08   0.00282137  0.000173011       1.8509 
         800      1.33333   0.00255776  0.000223237       1.8509 
         800      1.61333   0.00217054   0.00026569      1.85089 
         800         1.92   0.00175782  0.000302867      1.85088 
         800      2.25333   0.00134036  0.000335233      1.85087 
         800      2.61333   0.00091048  0.000361392      1.85085 
         800            3  0.000474274  0.000379113      1.85082 
         850            0           -0           -0      1.42782 
         850     0.013333  8.09646e-06  2.34979e-07      1.42782 
         850     0.053333 -0.000114303  3.46865e-06      1.42782 
         850         0.12 -0.000440764  1.53032e-05      1.42782 
         850     0.213332 -0.000950527  3.98435e-05      1.42782 
         850     0.333332  -0.00147436  7.63773e-05      1.42782 
         850         0.48  -0.00184409  0.000120514      1.42782 
         850     0.653331  -0.00201354  0.000168301      1.42782 
         850     0.853332  -0.00202301  0.000218988      1.42782 
         850         1.08  -0.00190103  0.000274551      1.42782 
         850      1.33333  -0.00165641  0.000336525      1.42782 
         850      1.61333  -0.00135052  0.000402247      1.42782 
         850         1.92  -0.00107483  0.000465282      1.42783 
         850      2.25333 -0.000818789   0.00052119      1.42783 
         850      2.61333 -0.000558614  0.000566814      1.42785 
         850            3 -0.000291744  0.000599601      1.42786 
         900            0 -2.58344e-20 -1.06217e-26      1.00721 
         900     0.013333 -0.000126485 -1.56264e-08      1.00721 
         900     0.053333 -0.000521689 -3.85271e-07      1.00721 
         900         0.12 -0.000981661 -2.78034e-06      1.00721 
         900     0.213332  -0.00130776 -1.08993e-05      1.00721 
         900     0.333332  -0.00139741 -2.90494e-05      1.00721 
         900         0.48  -0.00130089 -5.94184e-05       1.0072 
         900     0.653331  -0.00114776 -0.000100935       1.0072 
         900     0.853332  -0.00103389 -0.000150546       1.0072 
         900         1.08 -0.000973364 -0.000204744       1.0072 
         900      1.33333 -0.000920857 -0.000260047       1.0072 
         900      1.61333 -0.000828147 -0.000313355      1.00721 
         900         1.92 -0.000690895  -0.00036247      1.00721 
         900      2.25333 -0.000535702 -0.000405667      1.00721 
         900      2.61333 -0.000374541 -0.000441275      1.00722 
         900            3 -0.000208145 -0.000467266      1.00723 
         950            0           -0           -0     0.587972 
         950     0.013333  4.05705e-05  -2.1762e-07     0.587972 
         950     0.053333  0.000149897 -3.26473e-06     0.587972 
         950         0.12  0.000474647 -1.47327e-05     0.587972 
         950     0.213332   0.00101029 -3.93221e-05     0.587972 
         950     0.333332   0.00158619 -7.70571e-05     0.587972 
         950         0.48   0.00200156 -0.000123435     0.587972 
         950     0.653331   0.00217772 -0.000173433     0.587972 
         950     0.853332   0.00215517 -0.000224976     0.587973 
         950         1.08   0.00199746 -0.000278697     0.587973 
         950      1.33333   0.00175715 -0.000334829     0.587973 
         950      1.61333   0.00149797 -0.000390979     0.587971 
         950         1.92   0.00126361 -0.000443373     0.587968 
         950      2.25333    0.0010284  -0.00048938     0.587962 
         950      2.61333  0.000776518  -0.00052684     0.587952 
         950            3  0.000511942 -0.000553537     0.587938 
        1000            0           -0           -0       0.1687 
        1000     0.013333     0.000301 -1.29079e-08       0.1687 
        1000     0.053333   0.00102867  8.66428e-08       0.1687 
        1000         0.12   0.00193783  2.23504e-06       0.1687 
        1000     0.213332   0.00266436  1.20891e-05     0.168701 
        1000     0.333332    0.0029695  3.71849e-05     0.168701 
        1000         0.48    0.0028891  8.20658e-05     0.168702 
        1000     0.653331   0.00265065   0.00014555     0.168703 
        1000     0.853332    0.0024552  0.000222336     0.168703 
        1000         1.08   0.00234325  0.000305591     0.168704 
        1000      1.33333    0.0022199  0.000388268     0.168703 
        1000      1.61333   0.00199386  0.000465155     0.168701 
        1000         1.92   0.00169833  0.000534784     0.168696 
        1000      2.25333   0.00137991  0.000596742     0.168686 
        1000      2.61333   0.00105016  0.000648717     0.168672 
        1000            3  0.000709821  0.000687551     0.168652 
