Variables = x, y, u, v, p

Zone, I=1000, F=POINT
         400            0            0            0 -4.58202e-05 
         400      0.00015  5.79733e-05  2.95194e-12 -4.58202e-05 
         400     0.000601   0.00023228  4.73965e-11 -4.58201e-05 
         400     0.001352  0.000522533  2.39863e-10 -4.58199e-05 
         400     0.002404   0.00092912  7.58374e-10 -4.58196e-05 
         400     0.003757   0.00145204  1.85225e-09 -4.58193e-05 
         400      0.00541   0.00209091  3.84071e-09 -4.58188e-05 
         400     0.007364   0.00284611  7.11615e-09 -4.58183e-05 
         400     0.009619   0.00371764  1.21416e-08 -4.58177e-05 
         400     0.012174   0.00470512  1.94484e-08  -4.5817e-05 
         400      0.01503   0.00580894   2.9644e-08 -4.58163e-05 
         400     0.018186    0.0070287  4.34004e-08 -4.58155e-05 
         400     0.021643    0.0083648  6.14688e-08 -4.58146e-05 
         400       0.0254   0.00981685  8.46619e-08 -4.58136e-05 
         400     0.029458    0.0113852  1.13875e-07 -4.58125e-05 
         400     0.033817    0.0130699   1.5007e-07 -4.58114e-05 
         400     0.038476    0.0148706  1.94269e-07 -4.58101e-05 
         400     0.043436    0.0167876  2.47585e-07 -4.58088e-05 
         400     0.048697    0.0188209  3.11193e-07 -4.58075e-05 
         400     0.054258    0.0209702  3.86326e-07  -4.5806e-05 
         400      0.06012    0.0232358  4.74313e-07 -4.58045e-05 
         400     0.066282    0.0256174  5.76526e-07 -4.58028e-05 
         400     0.072745    0.0281153   6.9444e-07 -4.58011e-05 
         400     0.079508    0.0307291  8.29565e-07 -4.57994e-05 
         400     0.086572    0.0334593  9.83522e-07 -4.57975e-05 
         400     0.093937    0.0363057  1.15798e-06 -4.57956e-05 
         400     0.101602    0.0392681  1.35467e-06 -4.57936e-05 
         400     0.109568    0.0423468  1.57542e-06 -4.57915e-05 
         400     0.117835    0.0455418  1.82212e-06 -4.57893e-05 
         400     0.126402    0.0488527   2.0967e-06 -4.57871e-05 
         400      0.13527    0.0522799   2.4012e-06 -4.57847e-05 
         400     0.144438    0.0558229  2.73771e-06 -4.57823e-05 
         400     0.153907    0.0594822  3.10841e-06 -4.57798e-05 
         400     0.163676    0.0632573   3.5155e-06 -4.57773e-05 
         400     0.173746    0.0671486  3.96135e-06 -4.57746e-05 
         400     0.184117     0.071156  4.44832e-06 -4.57719e-05 
         400     0.194788    0.0752792  4.97881e-06 -4.57691e-05 
         400      0.20576    0.0795185   5.5554e-06 -4.57662e-05 
         400     0.217033    0.0838739  6.18068e-06 -4.57633e-05 
         400     0.228606    0.0883448  6.85724e-06 -4.57602e-05 
         400      0.24048    0.0929317  7.58786e-06 -4.57571e-05 
         400     0.252654     0.097634  8.37528e-06 -4.57539e-05 
         400     0.265129     0.102452  9.22243e-06 -4.57506e-05 
         400     0.277904     0.107386  1.01322e-05 -4.57473e-05 
         400     0.290981     0.112435  1.11076e-05 -4.57438e-05 
         400     0.304357     0.117599  1.21516e-05 -4.57403e-05 
         400     0.318035     0.122879  1.32675e-05 -4.57367e-05 
         400     0.332013     0.128274  1.44583e-05  -4.5733e-05 
         400     0.346291     0.133783  1.57274e-05 -4.57292e-05 
         400      0.36087     0.139407   1.7078e-05 -4.57254e-05 
         400      0.37575     0.145146  1.85136e-05 -4.57215e-05 
         400      0.39093     0.150999  2.00375e-05 -4.57175e-05 
         400     0.406411     0.156966  2.16532e-05 -4.57134e-05 
         400     0.422193     0.163048  2.33644e-05 -4.57092e-05 
         400     0.438275     0.169242  2.51746e-05  -4.5705e-05 
         400     0.454657      0.17555  2.70873e-05 -4.57006e-05 
         400     0.471341     0.181971  2.91065e-05 -4.56962e-05 
         400     0.488325     0.188504  3.12357e-05 -4.56917e-05 
         400     0.505609     0.195149  3.34787e-05 -4.56871e-05 
         400     0.523194     0.201906  3.58396e-05 -4.56824e-05 
         400      0.54108     0.208775   3.8322e-05 -4.56777e-05 
         400     0.559266     0.215753  4.09299e-05 -4.56728e-05 
         400     0.577753     0.222842  4.36672e-05 -4.56679e-05 
         400     0.596541     0.230041   4.6538e-05 -4.56629e-05 
         400     0.615629     0.237348  4.95462e-05 -4.56578e-05 
         400     0.635018     0.244763  5.26957e-05 -4.56526e-05 
         400     0.654707     0.252285  5.59904e-05 -4.56473e-05 
         400     0.674697     0.259913  5.94347e-05 -4.56419e-05 
         400     0.694987     0.267647  6.30322e-05 -4.56364e-05 
         400     0.715579     0.275486  6.67876e-05 -4.56308e-05 
         400      0.73647     0.283428   7.0704e-05 -4.56251e-05 
         400     0.757663     0.291472  7.47862e-05 -4.56194e-05 
         400     0.779155     0.299617  7.90375e-05 -4.56135e-05 
         400     0.800949     0.307862  8.34624e-05 -4.56075e-05 
         400     0.823043     0.316206  8.80642e-05 -4.56014e-05 
         400     0.845438     0.324646  9.28472e-05 -4.55953e-05 
         400     0.868133     0.333182  9.78147e-05  -4.5589e-05 
         400     0.891129     0.341811  0.000102971 -4.55826e-05 
         400     0.914426     0.350532  0.000108319 -4.55761e-05 
         400     0.938023     0.359343  0.000113862 -4.55694e-05 
         400      0.96192     0.368242  0.000119604 -4.55627e-05 
         400     0.986119     0.377227  0.000125549 -4.55558e-05 
         400      1.01062     0.386295  0.000131699 -4.55488e-05 
         400      1.03542     0.395444  0.000138057 -4.55417e-05 
         400      1.06052     0.404672  0.000144626 -4.55344e-05 
         400      1.08592     0.413976  0.000151409  -4.5527e-05 
         400      1.11162     0.423354  0.000158407 -4.55195e-05 
         400      1.13762     0.432801  0.000165625 -4.55119e-05 
         400      1.16392     0.442316  0.000173062 -4.55041e-05 
         400      1.19053     0.451895  0.000180722 -4.54961e-05 
         400      1.21743     0.461534  0.000188605  -4.5488e-05 
         400      1.24463      0.47123  0.000196712 -4.54798e-05 
         400      1.27214      0.48098  0.000205046 -4.54713e-05 
         400      1.29994     0.490778  0.000213605 -4.54627e-05 
         400      1.32805     0.500623  0.000222391 -4.54539e-05 
         400      1.35646     0.510508  0.000231403  -4.5445e-05 
         400      1.38517      0.52043  0.000240642 -4.54358e-05 
         400      1.41417     0.530385  0.000250105 -4.54264e-05 
         400      1.44348     0.540366  0.000259792 -4.54168e-05 
         400      1.47309      0.55037  0.000269701 -4.54071e-05 
         400        1.503     0.560392  0.000279828 -4.53972e-05 
         400      1.53321     0.570426  0.000290173 -4.53873e-05 
         400      1.56372     0.580467  0.000300733  -4.5377e-05 
         400      1.59453      0.59051  0.000311504 -4.53664e-05 
         400      1.62565     0.600547  0.000322481 -4.53555e-05 
         400      1.65706     0.610575  0.000333659 -4.53442e-05 
         400      1.68877     0.620586  0.000345034 -4.53327e-05 
         400      1.72079     0.630575  0.000356598  -4.5321e-05 
         400       1.7531     0.640535  0.000368346  -4.5309e-05 
         400      1.78572     0.650461  0.000380271 -4.52967e-05 
         400      1.81863     0.660344  0.000392366 -4.52842e-05 
         400      1.85185     0.670179  0.000404622 -4.52714e-05 
         400      1.88536      0.67996   0.00041703 -4.52584e-05 
         400      1.91918     0.689678  0.000429582 -4.52451e-05 
         400       1.9533     0.699329  0.000442268 -4.52316e-05 
         400      1.98772     0.708903  0.000455077 -4.52177e-05 
         400      2.02244     0.718396  0.000467998 -4.52035e-05 
         400      2.05746     0.727799  0.000481021  -4.5189e-05 
         400      2.09278     0.737106  0.000494132 -4.51741e-05 
         400       2.1284      0.74631   0.00050732 -4.51589e-05 
         400      2.16432     0.755404  0.000520571 -4.51433e-05 
         400      2.20054     0.764382  0.000533872 -4.51273e-05 
         400      2.23707     0.773236  0.000547208 -4.51108e-05 
         400      2.27389      0.78196  0.000560565  -4.5094e-05 
         400      2.31101     0.790548  0.000573929 -4.50768e-05 
         400      2.34844     0.798993  0.000587284 -4.50591e-05 
         400      2.38617      0.80729  0.000600615 -4.50411e-05 
         400      2.42419     0.815432  0.000613906 -4.50225e-05 
         400      2.46252     0.823413  0.000627141 -4.50036e-05 
         400      2.50114     0.831228  0.000640305 -4.49843e-05 
         400      2.54007     0.838873  0.000653381 -4.49645e-05 
         400       2.5793     0.846342  0.000666355 -4.49443e-05 
         400      2.61883     0.853631  0.000679209 -4.49238e-05 
         400      2.65866     0.860735  0.000691928 -4.49028e-05 
         400      2.69879     0.867651  0.000704497 -4.48815e-05 
         400      2.73922     0.874375  0.000716901 -4.48597e-05 
         400      2.77995     0.880903  0.000729124 -4.48376e-05 
         400      2.82098     0.887235  0.000741153 -4.48151e-05 
         400      2.86232     0.893366  0.000752974 -4.47922e-05 
         400      2.90395     0.899295  0.000764571  -4.4769e-05 
         400      2.94588     0.905021  0.000775934 -4.47453e-05 
         400      2.98812     0.910544  0.000787051 -4.47213e-05 
         400      3.03065     0.915861  0.000797908 -4.46968e-05 
         400      3.07349     0.920974  0.000808495 -4.46719e-05 
         400      3.11662     0.925883  0.000818804 -4.46465e-05 
         400      3.16006     0.930588  0.000828823 -4.46207e-05 
         400       3.2038     0.935091  0.000838546 -4.45944e-05 
         400      3.24783     0.939394  0.000847964 -4.45676e-05 
         400      3.29217     0.943499  0.000857071 -4.45403e-05 
         400      3.33681     0.947408  0.000865862 -4.45126e-05 
         400      3.38175     0.951125  0.000874331 -4.44844e-05 
         400      3.42699     0.954652  0.000882477 -4.44559e-05 
         400      3.47253     0.957994  0.000890296 -4.44272e-05 
         400      3.51838     0.961155  0.000897787 -4.43983e-05 
         400      3.56452     0.964138  0.000904952 -4.43696e-05 
         400      3.61096      0.96695  0.000911791 -4.43413e-05 
         400       3.6577     0.969594  0.000918309 -4.43139e-05 
         400      3.70475     0.972075  0.000924512 -4.42877e-05 
         400      3.75209     0.974401  0.000930405 -4.42632e-05 
         400      3.79974     0.976575  0.000935964 -4.42316e-05 
         400      3.84768     0.978603  0.000941224 -4.41992e-05 
         400      3.89593     0.980492  0.000946191 -4.41662e-05 
         400      3.94448     0.982248  0.000950867  -4.4133e-05 
         400      3.99332     0.983876  0.000955259 -4.40996e-05 
         400      4.04247     0.985382  0.000959374 -4.40662e-05 
         400      4.09192     0.986773   0.00096322 -4.40326e-05 
         400      4.14167     0.988055  0.000966806  -4.3999e-05 
         400      4.19172     0.989233  0.000970141 -4.39651e-05 
         400      4.24207     0.990313  0.000973234  -4.3931e-05 
         400      4.29272     0.991302  0.000976098 -4.38965e-05 
         400      4.34367     0.992205  0.000978742 -4.38616e-05 
         400      4.39493     0.993027  0.000981178 -4.38262e-05 
         400      4.44648     0.993775  0.000983417 -4.37902e-05 
         400      4.49833     0.994452   0.00098547 -4.37536e-05 
         400      4.55049     0.995064  0.000987348 -4.37165e-05 
         400      4.60294     0.995617  0.000989063 -4.36788e-05 
         400       4.6557     0.996114  0.000990625 -4.36407e-05 
         400      4.70875      0.99656  0.000992044 -4.36023e-05 
         400      4.76211     0.996959   0.00099333 -4.35637e-05 
         400      4.81577     0.997315  0.000994493 -4.35251e-05 
         400      4.86972     0.997633  0.000995542 -4.34866e-05 
         400      4.92398     0.997915  0.000996485 -4.34484e-05 
         400      4.97854     0.998164   0.00099733 -4.34105e-05 
         400       5.0334     0.998385  0.000998086 -4.33733e-05 
         400      5.08856     0.998579   0.00099876 -4.33367e-05 
         400      5.14402     0.998749  0.000999358 -4.33008e-05 
         400      5.19978     0.998899  0.000999887 -4.32656e-05 
         400      5.25584     0.999029   0.00100035  -4.3231e-05 
         400      5.31221     0.999143   0.00100076 -4.31969e-05 
         400      5.36887     0.999242   0.00100112 -4.31629e-05 
         400      5.42584     0.999327   0.00100144 -4.31288e-05 
         400       5.4831     0.999401   0.00100171  -4.3094e-05 
         400      5.54066     0.999464   0.00100195  -4.3058e-05 
         400      5.59853     0.999519   0.00100215   -4.302e-05 
         400       5.6567     0.999565   0.00100233 -4.29794e-05 
         400      5.71516     0.999605   0.00100248 -4.29351e-05 
         400      5.77393     0.999639    0.0010026 -4.28864e-05 
         400        5.833     0.999667   0.00100273 -4.28326e-05 
         400      5.89237     0.999691   0.00100287 -4.27786e-05 
         400      5.95204     0.999712   0.00100299 -4.27261e-05 
         400      6.01201     0.999729   0.00100309 -4.26763e-05 
         400      6.07228     0.999743   0.00100316 -4.26304e-05 
         400      6.13285     0.999755   0.00100317 -4.25902e-05 
         400      6.19372     0.999765    0.0010031 -4.25574e-05 
         400      6.25489     0.999773    0.0010032 -4.25236e-05 
         400      6.31636      0.99978   0.00100329 -4.24843e-05 
         400      6.37814     0.999786   0.00100335  -4.2442e-05 
         400      6.44021     0.999791   0.00100338 -4.23982e-05 
         400      6.50258     0.999794   0.00100339  -4.2354e-05 
         400      6.56526     0.999797   0.00100338 -4.23103e-05 
         400      6.62824       0.9998   0.00100334 -4.22677e-05 
         400      6.69151     0.999802   0.00100335 -4.22296e-05 
         400      6.75509     0.999804   0.00100337 -4.21923e-05 
         400      6.81897     0.999805   0.00100337 -4.21531e-05 
         400      6.88314     0.999806   0.00100337 -4.21113e-05 
         400      6.94762     0.999807   0.00100337 -4.20668e-05 
         400       7.0124     0.999808   0.00100338   -4.202e-05 
         400      7.07748     0.999809   0.00100339 -4.19718e-05 
         400      7.14286     0.999809   0.00100341 -4.19228e-05 
         400      7.20854      0.99981   0.00100343 -4.18738e-05 
         400      7.27453      0.99981   0.00100346 -4.18256e-05 
         400      7.34081     0.999811   0.00100349 -4.17786e-05 
         400      7.40739     0.999811   0.00100351 -4.17331e-05 
         400      7.47428     0.999811   0.00100353 -4.16891e-05 
         400      7.54146     0.999812   0.00100355 -4.16465e-05 
         400      7.60895     0.999812   0.00100356 -4.16047e-05 
         400      7.67673     0.999812   0.00100357 -4.15633e-05 
         400      7.74482     0.999812   0.00100356 -4.15216e-05 
         400       7.8132     0.999813   0.00100356  -4.1479e-05 
         400      7.88189     0.999813   0.00100355 -4.14348e-05 
         400      7.95088     0.999813   0.00100354 -4.13886e-05 
         400      8.02017     0.999813   0.00100354 -4.13401e-05 
         400      8.08976     0.999814   0.00100354 -4.12893e-05 
         400      8.15964     0.999814   0.00100354 -4.12365e-05 
         400      8.22983     0.999814   0.00100355 -4.11824e-05 
         400      8.30033     0.999814   0.00100357 -4.11278e-05 
         400      8.37112     0.999814   0.00100358 -4.10738e-05 
         400      8.44221     0.999815   0.00100359 -4.10216e-05 
         400       8.5136     0.999815    0.0010036 -4.09722e-05 
         400      8.58529     0.999815   0.00100359  -4.0926e-05 
         400      8.65729     0.999815   0.00100358 -4.08829e-05 
         400      8.72958     0.999815   0.00100356  -4.0841e-05 
         400      8.80218     0.999816   0.00100354 -4.07967e-05 
         400      8.87507     0.999816   0.00100356 -4.07434e-05 
         400      8.94827     0.999816   0.00100366 -4.06706e-05 
         400      9.02177     0.999816   0.00100362 -4.06372e-05 
         400      9.09556     0.999816   0.00100357 -4.05973e-05 
         400      9.16966     0.999817   0.00100358  -4.0542e-05 
         400      9.24406     0.999817    0.0010036 -4.04802e-05 
         400      9.31876     0.999817   0.00100363 -4.04181e-05 
         400      9.39376     0.999817   0.00100366 -4.03592e-05 
         400      9.46906     0.999817   0.00100368  -4.0305e-05 
         400      9.54466     0.999818   0.00100369 -4.02557e-05 
         400      9.62056     0.999818    0.0010037 -4.02105e-05 
         400      9.69676     0.999818    0.0010037 -4.01678e-05 
         400      9.77327     0.999818   0.00100369 -4.01259e-05 
         400      9.85007     0.999819   0.00100369 -4.00829e-05 
         400      9.92717     0.999819   0.00100368 -4.00371e-05 
         400      10.0046     0.999819   0.00100367 -3.99871e-05 
         400      10.0823     0.999819   0.00100367 -3.99321e-05 
         400      10.1603     0.999819   0.00100367 -3.98719e-05 
         400      10.2386      0.99982   0.00100369 -3.98067e-05 
         400      10.3172      0.99982   0.00100371 -3.97377e-05 
         400      10.3961      0.99982   0.00100374 -3.96667e-05 
         400      10.4753      0.99982   0.00100378 -3.95962e-05 
         400      10.5548     0.999821   0.00100382 -3.95296e-05 
         400      10.6346     0.999821   0.00100385 -3.94711e-05 
         400      10.7147     0.999821   0.00100384 -3.94256e-05 
         400      10.7952     0.999821   0.00100384 -3.93738e-05 
         400      10.8759     0.999822   0.00100386 -3.93181e-05 
         400      10.9569     0.999822   0.00100386 -3.92721e-05 
         400      11.0382     0.999822   0.00100384 -3.92323e-05 
         400      11.1198     0.999822   0.00100382 -3.91952e-05 
         400      11.2017     0.999823    0.0010038 -3.91579e-05 
         400      11.2839     0.999823   0.00100378  -3.9118e-05 
         400      11.3664     0.999823   0.00100377 -3.90734e-05 
         400      11.4493     0.999823   0.00100378 -3.90226e-05 
         400      11.5324     0.999823   0.00100379 -3.89648e-05 
         400      11.6158     0.999824   0.00100382 -3.88998e-05 
         400      11.6995     0.999824   0.00100386 -3.88284e-05 
         400      11.7835     0.999824   0.00100391 -3.87524e-05 
         400      11.8679     0.999824   0.00100395 -3.86746e-05 
         400      11.9525     0.999825   0.00100399 -3.85995e-05 
         400      12.0374     0.999825     0.001004 -3.85331e-05 
         400      12.1226     0.999825   0.00100398 -3.84833e-05 
         400      12.2081     0.999825   0.00100394 -3.84476e-05 
         400       12.294     0.999826   0.00100399 -3.83499e-05 
         400      12.3801     0.999826     0.001004 -3.82738e-05 
         400      12.4665     0.999826   0.00100398 -3.82123e-05 
         400      12.5532     0.999827   0.00100395 -3.81595e-05 
         400      12.6402     0.999827   0.00100392 -3.81111e-05 
         400      12.7276     0.999827   0.00100391 -3.80639e-05 
         400      12.8152     0.999827    0.0010039 -3.80157e-05 
         400      12.9031     0.999828   0.00100391 -3.79651e-05 
         400      12.9913     0.999828   0.00100393 -3.79114e-05 
         400      13.0799     0.999828   0.00100396 -3.78541e-05 
         400      13.1687     0.999828   0.00100399 -3.77936e-05 
         400      13.2578     0.999828   0.00100402 -3.77302e-05 
         400      13.3473     0.999829   0.00100406 -3.76646e-05 
         400       13.437     0.999829   0.00100408 -3.75973e-05 
         400       13.527     0.999829   0.00100411 -3.75292e-05 
         400      13.6173     0.999829   0.00100412 -3.74608e-05 
         400       13.708      0.99983   0.00100413 -3.73929e-05 
         400      13.7989      0.99983   0.00100413 -3.73258e-05 
         400      13.8901      0.99983   0.00100413 -3.72598e-05 
         400      13.9817      0.99983   0.00100412 -3.71953e-05 
         400      14.0735     0.999831    0.0010041 -3.71321e-05 
         400      14.1656     0.999831   0.00100409 -3.70701e-05 
         400      14.2581     0.999831   0.00100408 -3.70091e-05 
         400      14.3508     0.999832   0.00100407 -3.69487e-05 
         400      14.4438     0.999832   0.00100406 -3.68886e-05 
         400      14.5372     0.999832   0.00100406 -3.68281e-05 
         400      14.6308     0.999833   0.00100406 -3.67669e-05 
         400      14.7248     0.999833   0.00100406 -3.67045e-05 
         400       14.819     0.999833   0.00100408 -3.66405e-05 
         400      14.9135     0.999833   0.00100409 -3.65747e-05 
         400      15.0084     0.999834   0.00100411 -3.65069e-05 
         400      15.1035     0.999834   0.00100413 -3.64373e-05 
         400       15.199     0.999834   0.00100415 -3.63661e-05 
         400      15.2947     0.999834   0.00100416 -3.62937e-05 
         400      15.3907     0.999835   0.00100418 -3.62207e-05 
         400      15.4871     0.999835   0.00100419 -3.61479e-05 
         400      15.5837     0.999835    0.0010042 -3.60761e-05 
         400      15.6807     0.999835   0.00100421 -3.60061e-05 
         400      15.7779     0.999836   0.00100422 -3.59387e-05 
         400      15.8755     0.999836   0.00100424 -3.58744e-05 
         400      15.9733     0.999836   0.00100427 -3.58131e-05 
         400      16.0714     0.999837    0.0010043 -3.57544e-05 
         400      16.1699     0.999837   0.00100432 -3.57021e-05 
         400      16.2686     0.999837   0.00100431 -3.56503e-05 
         400      16.3677     0.999838   0.00100431 -3.55895e-05 
         400       16.467     0.999838    0.0010043 -3.55069e-05 
         400      16.5667     0.999838   0.00100433 -3.53841e-05 
         400      16.6666     0.999838   0.00100443 -3.51963e-05 
         400      16.7669     0.999838   0.00100433 -3.51459e-05 
         400      16.8674     0.999839   0.00100418 -3.51878e-05 
         400      16.9683     0.999839   0.00100411 -3.51212e-05 
         400      17.0694     0.999839   0.00100412 -3.50438e-05 
         400      17.1709      0.99984   0.00100423 -3.50008e-05 
         400      17.2726      0.99984   0.00100429 -3.49518e-05 
         400      17.3747     0.999841   0.00100432 -3.48917e-05 
         400      17.4771     0.999841   0.00100432 -3.48238e-05 
         400      17.5797     0.999841   0.00100432 -3.47506e-05 
         400      17.6827     0.999841   0.00100432 -3.46744e-05 
         400      17.7859     0.999842   0.00100432 -3.45965e-05 
         400      17.8895     0.999842   0.00100432 -3.45184e-05 
         400      17.9933     0.999842   0.00100433 -3.44406e-05 
         400      18.0975     0.999843   0.00100435 -3.43638e-05 
         400      18.2019     0.999843   0.00100437 -3.42881e-05 
         400      18.3067     0.999843   0.00100439 -3.42137e-05 
         400      18.4118     0.999844   0.00100441 -3.41405e-05 
         400      18.5171     0.999844   0.00100443 -3.40682e-05 
         400      18.6228     0.999844   0.00100446 -3.39967e-05 
         400      18.7288     0.999844   0.00100447 -3.39256e-05 
         400       18.835     0.999845   0.00100449 -3.38547e-05 
         400      18.9416     0.999845    0.0010045 -3.37835e-05 
         400      19.0484     0.999845   0.00100451 -3.37119e-05 
         400      19.1556     0.999846   0.00100452 -3.36397e-05 
         400      19.2631     0.999846   0.00100452 -3.35665e-05 
         400      19.3708     0.999846   0.00100452 -3.34924e-05 
         400      19.4789     0.999847   0.00100453 -3.34173e-05 
         400      19.5873     0.999847   0.00100453 -3.33411e-05 
         400      19.6959     0.999847   0.00100453  -3.3264e-05 
         400      19.8049     0.999848   0.00100453  -3.3186e-05 
         400      19.9142     0.999848   0.00100453 -3.31073e-05 
         400      20.0237     0.999848   0.00100454  -3.3028e-05 
         400      20.1336     0.999849   0.00100454 -3.29485e-05 
         400      20.2438     0.999849   0.00100455 -3.28688e-05 
         400      20.3542     0.999849   0.00100455 -3.27893e-05 
         400       20.465      0.99985   0.00100456 -3.27101e-05 
         400      20.5761      0.99985   0.00100456 -3.26313e-05 
         400      20.6875      0.99985   0.00100456  -3.2553e-05 
         400      20.7991     0.999851   0.00100457 -3.24755e-05 
         400      20.9111     0.999851   0.00100457 -3.23985e-05 
         400      21.0234     0.999851   0.00100457 -3.23222e-05 
         400       21.136     0.999851   0.00100457 -3.22464e-05 
         400      21.2488     0.999852   0.00100457  -3.2171e-05 
         400       21.362     0.999852   0.00100458 -3.20957e-05 
         400      21.4755     0.999852   0.00100459 -3.20205e-05 
         400      21.5893     0.999853   0.00100461  -3.1945e-05 
         400      21.7033     0.999853   0.00100463 -3.18693e-05 
         400      21.8177     0.999853   0.00100466 -3.17933e-05 
         400      21.9324     0.999854   0.00100469 -3.17172e-05 
         400      22.0474     0.999854   0.00100469  -3.1637e-05 
         400      22.1627     0.999854   0.00100468 -3.15524e-05 
         400      22.2782     0.999855   0.00100468 -3.14694e-05 
         400      22.3941     0.999855   0.00100468 -3.13871e-05 
         400      22.5103     0.999855   0.00100469  -3.1305e-05 
         400      22.6268     0.999856   0.00100469 -3.12227e-05 
         400      22.7436     0.999856    0.0010047   -3.114e-05 
         400      22.8607     0.999856   0.00100471 -3.10569e-05 
         400       22.978     0.999857   0.00100472 -3.09734e-05 
         400      23.0957     0.999857   0.00100473 -3.08896e-05 
         400      23.2137     0.999857   0.00100475 -3.08057e-05 
         400       23.332     0.999858   0.00100476 -3.07219e-05 
         400      23.4506     0.999858   0.00100478 -3.06382e-05 
         400      23.5695     0.999858    0.0010048 -3.05548e-05 
         400      23.6887     0.999859   0.00100482  -3.0472e-05 
         400      23.8081     0.999859   0.00100484 -3.03897e-05 
         400      23.9279      0.99986   0.00100486 -3.03079e-05 
         400       24.048      0.99986   0.00100488 -3.02268e-05 
         400      24.1684      0.99986    0.0010049 -3.01462e-05 
         400      24.2891     0.999861   0.00100491 -3.00661e-05 
         400      24.4101     0.999861   0.00100492 -2.99862e-05 
         400      24.5314     0.999862   0.00100492 -2.99064e-05 
         400       24.653     0.999862   0.00100493 -2.98265e-05 
         400      24.7749     0.999862   0.00100492 -2.97463e-05 
         400      24.8971     0.999863   0.00100492 -2.96655e-05 
         400      25.0196     0.999863   0.00100491 -2.95838e-05 
         400      25.1424     0.999863    0.0010049  -2.9501e-05 
         400      25.2655     0.999863   0.00100488  -2.9417e-05 
         400      25.3889     0.999864   0.00100488 -2.93315e-05 
         400      25.5125     0.999864   0.00100487 -2.92444e-05 
         400      25.6365     0.999864   0.00100487 -2.91558e-05 
         400      25.7608     0.999865   0.00100487 -2.90657e-05 
         400      25.8854     0.999865   0.00100488 -2.89741e-05 
         400      26.0103     0.999865   0.00100489 -2.88814e-05 
         400      26.1355     0.999866   0.00100492 -2.87879e-05 
         400       26.261     0.999866   0.00100495 -2.86939e-05 
         400      26.3868     0.999866   0.00100498 -2.86002e-05 
         400      26.5129     0.999867   0.00100501 -2.85073e-05 
         400      26.6393     0.999867   0.00100505  -2.8416e-05 
         400      26.7661     0.999868   0.00100508 -2.83271e-05 
         400      26.8931     0.999868    0.0010051 -2.82416e-05 
         400      27.0204     0.999869   0.00100511 -2.81604e-05 
         400       27.148     0.999869    0.0010051 -2.80845e-05 
         400      27.2759      0.99987   0.00100507 -2.80147e-05 
         400      27.4041      0.99987   0.00100503 -2.79519e-05 
         400      27.5326      0.99987   0.00100497 -2.78967e-05 
         400      27.6614      0.99987   0.00100494 -2.77886e-05 
         400      27.7905     0.999871   0.00100499  -2.7649e-05 
         400      27.9199     0.999871   0.00100503 -2.75318e-05 
         400      28.0496     0.999872   0.00100506 -2.74307e-05 
         400      28.1796     0.999872   0.00100509 -2.73403e-05 
         400      28.3099     0.999872   0.00100511 -2.72565e-05 
         400      28.4405     0.999872   0.00100513 -2.71762e-05 
         400      28.5715     0.999873   0.00100514 -2.70969e-05 
         400      28.7027     0.999873   0.00100515 -2.70169e-05 
         400      28.8342     0.999873   0.00100516 -2.69351e-05 
         400       28.966     0.999874   0.00100517 -2.68507e-05 
         400      29.0981     0.999874   0.00100518 -2.67634e-05 
         400      29.2305     0.999875   0.00100518 -2.66733e-05 
         400      29.3632     0.999875   0.00100519 -2.65805e-05 
         400      29.4963     0.999876    0.0010052 -2.64855e-05 
         400      29.6296     0.999876   0.00100521 -2.63886e-05 
         400      29.7632     0.999877   0.00100522 -2.62904e-05 
         400      29.8971     0.999877   0.00100523 -2.61914e-05 
         400      30.0313     0.999877   0.00100524 -2.60921e-05 
         400      30.1658     0.999878   0.00100525 -2.59929e-05 
         400      30.3007     0.999878   0.00100526 -2.58943e-05 
         400      30.4358     0.999879   0.00100526 -2.57965e-05 
         400      30.5712     0.999879   0.00100526 -2.56996e-05 
         400      30.7069     0.999879   0.00100526 -2.56039e-05 