Variables = x, y, u, v, p

Zone, I=1000, F=POINT
        1000            0           -0           -0 -4.75717e-06 
        1000      0.00015  4.30159e-05  1.25425e-12 -4.75716e-06 
        1000     0.000601   0.00017235  2.01137e-11 -4.75711e-06 
        1000     0.001352  0.000387717  1.01765e-10 -4.75702e-06 
        1000     0.002404  0.000689402  3.21708e-10 -4.75691e-06 
        1000     0.003757   0.00107741  7.85664e-10 -4.75676e-06 
        1000      0.00541   0.00155144  1.62897e-09 -4.75657e-06 
        1000     0.007364    0.0021118  3.01793e-09 -4.75636e-06 
        1000     0.009619   0.00275848   5.1488e-09  -4.7561e-06 
        1000     0.012174   0.00349119  8.24661e-09 -4.75582e-06 
        1000      0.01503   0.00431022  1.25687e-08  -4.7555e-06 
        1000     0.018186   0.00521529  1.83995e-08 -4.75515e-06 
        1000     0.021643   0.00620668  2.60571e-08 -4.75477e-06 
        1000       0.0254   0.00728411  3.58853e-08 -4.75435e-06 
        1000     0.029458   0.00844786  4.82627e-08  -4.7539e-06 
        1000     0.033817   0.00969794  6.35957e-08 -4.75342e-06 
        1000     0.038476    0.0110341  8.23165e-08  -4.7529e-06 
        1000     0.043436    0.0124565  1.04895e-07 -4.75235e-06 
        1000     0.048697    0.0139653  1.31827e-07 -4.75176e-06 
        1000     0.054258    0.0155601  1.63633e-07 -4.75115e-06 
        1000      0.06012    0.0172412  2.00873e-07  -4.7505e-06 
        1000     0.066282    0.0190084  2.44125e-07 -4.74981e-06 
        1000     0.072745    0.0208619  2.94012e-07  -4.7491e-06 
        1000     0.079508    0.0228015  3.51167e-07 -4.74835e-06 
        1000     0.086572    0.0248274  4.16276e-07 -4.74757e-06 
        1000     0.093937    0.0269396  4.90036e-07 -4.74675e-06 
        1000     0.101602    0.0291379  5.73175e-07 -4.74591e-06 
        1000     0.109568    0.0314225  6.66466e-07 -4.74503e-06 
        1000     0.117835    0.0337935    7.707e-07 -4.74411e-06 
        1000     0.126402    0.0362504  8.86683e-07 -4.74317e-06 
        1000      0.13527    0.0387937  1.01528e-06 -4.74219e-06 
        1000     0.144438    0.0414231  1.15735e-06 -4.74118e-06 
        1000     0.153907    0.0441387  1.31382e-06 -4.74014e-06 
        1000     0.163676    0.0469404  1.48561e-06 -4.73906e-06 
        1000     0.173746    0.0498284   1.6737e-06 -4.73796e-06 
        1000     0.184117    0.0528027   1.8791e-06 -4.73682e-06 
        1000     0.194788     0.055863   2.1028e-06 -4.73565e-06 
        1000      0.20576    0.0590096  2.34587e-06 -4.73444e-06 
        1000     0.217033    0.0622425   2.6094e-06 -4.73321e-06 
        1000     0.228606    0.0655613  2.89448e-06 -4.73194e-06 
        1000      0.24048    0.0689664  3.20227e-06 -4.73064e-06 
        1000     0.252654    0.0724574  3.53386e-06 -4.72931e-06 
        1000     0.265129    0.0760346  3.89058e-06 -4.72795e-06 
        1000     0.277904    0.0796977  4.27357e-06 -4.72655e-06 
        1000     0.290981    0.0834473  4.68412e-06 -4.72513e-06 
        1000     0.304357    0.0872823  5.12339e-06 -4.72368e-06 
        1000     0.318035    0.0912038   5.5928e-06 -4.72219e-06 
        1000     0.332013     0.095211  6.09364e-06 -4.72067e-06 
        1000     0.346291    0.0993039  6.62729e-06 -4.71912e-06 
        1000      0.36087     0.103483  7.19518e-06 -4.71753e-06 
        1000      0.37575     0.107747   7.7987e-06 -4.71592e-06 
        1000      0.39093     0.112098  8.43925e-06 -4.71428e-06 
        1000     0.406411     0.116534  9.11831e-06 -4.71261e-06 
        1000     0.422193     0.121055  9.83736e-06  -4.7109e-06 
        1000     0.438275     0.125662  1.05979e-05 -4.70917e-06 
        1000     0.454657     0.130355  1.14014e-05  -4.7074e-06 
        1000     0.471341     0.135133  1.22496e-05 -4.70561e-06 
        1000     0.488325     0.139995  1.31441e-05 -4.70378e-06 
        1000     0.505609     0.144943  1.40864e-05 -4.70192e-06 
        1000     0.523194     0.149976  1.50782e-05 -4.70003e-06 
        1000      0.54108     0.155094  1.61211e-05 -4.69812e-06 
        1000     0.559266     0.160296  1.72168e-05 -4.69618e-06 
        1000     0.577753     0.165582  1.83668e-05 -4.69421e-06 
        1000     0.596541     0.170953  1.95732e-05 -4.69218e-06 
        1000     0.615629     0.176408  2.08384e-05 -4.69013e-06 
        1000     0.635018     0.181947  2.21625e-05 -4.68812e-06 
        1000     0.654707     0.187569  2.35475e-05 -4.68605e-06 
        1000     0.674697     0.193274  2.49958e-05 -4.68393e-06 
        1000     0.694987     0.199062  2.65094e-05 -4.68177e-06 
        1000     0.715579     0.204934  2.80904e-05 -4.67958e-06 
        1000      0.73647     0.210887  2.97404e-05 -4.67736e-06 
        1000     0.757663     0.216923  3.14614e-05 -4.67512e-06 
        1000     0.779155      0.22304  3.32549e-05 -4.67285e-06 
        1000     0.800949     0.229239  3.51229e-05 -4.67057e-06 
        1000     0.823043     0.235518  3.70669e-05 -4.66826e-06 
        1000     0.845438     0.241878  3.90888e-05 -4.66593e-06 
        1000     0.868133     0.248317  4.11904e-05 -4.66357e-06 
        1000     0.891129     0.254836  4.33737e-05 -4.66119e-06 
        1000     0.914426     0.261434  4.56407e-05 -4.65878e-06 
        1000     0.938023     0.268109  4.79934e-05 -4.65635e-06 
        1000      0.96192     0.274863  5.04336e-05 -4.65388e-06 
        1000     0.986119     0.281693  5.29637e-05 -4.65139e-06 
        1000      1.01062     0.288599  5.55854e-05 -4.64887e-06 
        1000      1.03542     0.295581  5.83006e-05 -4.64632e-06 
        1000      1.06052     0.302637  6.11114e-05 -4.64375e-06 
        1000      1.08592     0.309767  6.40194e-05 -4.64115e-06 
        1000      1.11162      0.31697  6.70263e-05 -4.63853e-06 
        1000      1.13762     0.324245  7.01337e-05 -4.63589e-06 
        1000      1.16392      0.33159  7.33433e-05 -4.63323e-06 
        1000      1.19053     0.339005  7.66565e-05 -4.63055e-06 
        1000      1.21743     0.346489  8.00749e-05 -4.62785e-06 
        1000      1.24463     0.354041  8.36002e-05 -4.62512e-06 
        1000      1.27214     0.361658  8.72342e-05 -4.62237e-06 
        1000      1.29994     0.369341  9.09787e-05  -4.6196e-06 
        1000      1.32805     0.377087  9.48359e-05 -4.61679e-06 
        1000      1.35646     0.384895  9.88074e-05 -4.61396e-06 
        1000      1.38517     0.392764  0.000102895  -4.6111e-06 
        1000      1.41417     0.400691  0.000107101 -4.60824e-06 
        1000      1.44348     0.408676  0.000111424  -4.6054e-06 
        1000      1.47309     0.416716  0.000115862 -4.60262e-06 
        1000        1.503     0.424811  0.000120411 -4.59997e-06 
        1000      1.53321     0.432957  0.000125085 -4.59625e-06 
        1000      1.56372     0.441153  0.000129889 -4.59284e-06 
        1000      1.59453     0.449396   0.00013482 -4.58976e-06 
        1000      1.62565     0.457686  0.000139877 -4.58692e-06 
        1000      1.65706     0.466019  0.000145057 -4.58419e-06 
        1000      1.68877     0.474392  0.000150359 -4.58152e-06 
        1000      1.72079     0.482805  0.000155784 -4.57882e-06 
        1000       1.7531     0.491253  0.000161331 -4.57606e-06 
        1000      1.78572     0.499736  0.000167001 -4.57319e-06 
        1000      1.81863     0.508249  0.000172793  -4.5702e-06 
        1000      1.85185      0.51679  0.000178708 -4.56708e-06 
        1000      1.88536     0.525356  0.000184747 -4.56383e-06 
        1000      1.91918     0.533944  0.000190909 -4.56045e-06 
        1000       1.9533     0.542552  0.000197194 -4.55697e-06 
        1000      1.98772     0.551176  0.000203603 -4.55339e-06 
        1000      2.02244     0.559812  0.000210135 -4.54975e-06 
        1000      2.05746     0.568458  0.000216788 -4.54606e-06 
        1000      2.09278     0.577109  0.000223562 -4.54235e-06 
        1000       2.1284     0.585763  0.000230455 -4.53865e-06 
        1000      2.16432     0.594416  0.000237465 -4.53496e-06 
        1000      2.20054     0.603064  0.000244589 -4.53132e-06 
        1000      2.23707     0.611703  0.000251826 -4.52773e-06 
        1000      2.27389      0.62033  0.000259171 -4.52419e-06 
        1000      2.31101      0.62894  0.000266623 -4.52072e-06 
        1000      2.34844      0.63753  0.000274176  -4.5173e-06 
        1000      2.38617     0.646095  0.000281827 -4.51393e-06 
        1000      2.42419     0.654631  0.000289573  -4.5106e-06 
        1000      2.46252     0.663135  0.000297408 -4.50727e-06 
        1000      2.50114     0.671601  0.000305329 -4.50393e-06 
        1000      2.54007     0.680026  0.000313331 -4.50056e-06 
        1000       2.5793     0.688405  0.000321409 -4.49711e-06 
        1000      2.61883     0.696734  0.000329559 -4.49356e-06 
        1000      2.65866     0.705008  0.000337776 -4.48987e-06 
        1000      2.69879     0.713224  0.000346056 -4.48601e-06 
        1000      2.73922     0.721376  0.000354395 -4.48196e-06 
        1000      2.77995     0.729459  0.000362786  -4.4777e-06 
        1000      2.82098     0.737471  0.000371225  -4.4732e-06 
        1000      2.86232     0.745406  0.000379707 -4.46845e-06 
        1000      2.90395      0.75326  0.000388227 -4.46346e-06 
        1000      2.94588     0.761029   0.00039678 -4.45822e-06 
        1000      2.98812     0.768707  0.000405358 -4.45276e-06 
        1000      3.03065     0.776292  0.000413956 -4.44709e-06 
        1000      3.07349     0.783779  0.000422567 -4.44125e-06 
        1000      3.11662     0.791163  0.000431182 -4.43526e-06 
        1000      3.16006     0.798441  0.000439795 -4.42914e-06 
        1000       3.2038     0.805609  0.000448395 -4.42294e-06 
        1000      3.24783     0.812663  0.000456974 -4.41664e-06 
        1000      3.29217     0.819599  0.000465521 -4.41024e-06 
        1000      3.33681     0.826414  0.000474027 -4.40367e-06 
        1000      3.38175     0.833104  0.000482482 -4.39685e-06 
        1000      3.42699     0.839667  0.000490877 -4.38958e-06 
        1000      3.47253     0.846098  0.000499205 -4.38159e-06 
        1000      3.51838     0.852396   0.00050746 -4.37251e-06 
        1000      3.56452     0.858557  0.000515641 -4.36179e-06 
        1000      3.61096     0.864579  0.000523753 -4.34869e-06 
        1000       3.6577     0.870459  0.000531808 -4.33227e-06 
        1000      3.70475     0.876196  0.000539827 -4.31127e-06 
        1000      3.75209     0.881787  0.000547828 -4.28529e-06 
        1000      3.79974     0.887229  0.000555415 -4.28175e-06 
        1000      3.84768     0.892523  0.000562936 -4.27881e-06 
        1000      3.89593      0.89767  0.000570374 -4.27627e-06 
        1000      3.94448     0.902666  0.000577714 -4.27397e-06 
        1000      3.99332     0.907511  0.000584941 -4.27178e-06 
        1000      4.04247     0.912205  0.000592044 -4.26958e-06 
        1000      4.09192     0.916746  0.000599011  -4.2673e-06 
        1000      4.14167     0.921135  0.000605832 -4.26486e-06 
        1000      4.19172     0.925373  0.000612501 -4.26223e-06 
        1000      4.24207     0.929458  0.000619008 -4.25938e-06 
        1000      4.29272     0.933393  0.000625349  -4.2563e-06 
        1000      4.34367     0.937178  0.000631518 -4.25299e-06 
        1000      4.39493     0.940815  0.000637511 -4.24947e-06 
        1000      4.44648     0.944305  0.000643325 -4.24575e-06 
        1000      4.49833      0.94765  0.000648958 -4.24189e-06 
        1000      4.55049     0.950852  0.000654408  -4.2379e-06 
        1000      4.60294     0.953913  0.000659674 -4.23385e-06 
        1000       4.6557     0.956836  0.000664756 -4.22976e-06 
        1000      4.70875     0.959623  0.000669654 -4.22569e-06 
        1000      4.76211     0.962277  0.000674369 -4.22168e-06 
        1000      4.81577       0.9648  0.000678902 -4.21776e-06 
        1000      4.86972     0.967197  0.000683254 -4.21398e-06 
        1000      4.92398      0.96947  0.000687428 -4.21037e-06 
        1000      4.97854     0.971623  0.000691426 -4.20695e-06 
        1000       5.0334     0.973659   0.00069525 -4.20373e-06 
        1000      5.08856     0.975581  0.000698904 -4.20072e-06 
        1000      5.14402     0.977394  0.000702389 -4.19793e-06 
        1000      5.19978       0.9791   0.00070571 -4.19532e-06 
        1000      5.25584     0.980704   0.00070887 -4.19289e-06 
        1000      5.31221      0.98221  0.000711871  -4.1906e-06 
        1000      5.36887     0.983621  0.000714718 -4.18841e-06 
        1000      5.42584     0.984941  0.000717414 -4.18626e-06 
        1000       5.4831     0.986175  0.000719964 -4.18408e-06 
        1000      5.54066     0.987325   0.00072237 -4.18182e-06 
        1000      5.59853     0.988396  0.000724637 -4.17938e-06 
        1000       5.6567     0.989391  0.000726769 -4.17668e-06 
        1000      5.71516     0.990314   0.00072877 -4.17365e-06 
        1000      5.77393      0.99117  0.000730644 -4.17017e-06 
        1000        5.833     0.991961  0.000732396 -4.16617e-06 
        1000      5.89237     0.992691  0.000734029 -4.16156e-06 
        1000      5.95204     0.993363   0.00073555 -4.15625e-06 
        1000      6.01201     0.993982  0.000736961 -4.15016e-06 
        1000      6.07228     0.994549  0.000738267 -4.14323e-06 
        1000      6.13285      0.99507  0.000739475 -4.13541e-06 
        1000      6.19372     0.995545  0.000740587 -4.12667e-06 
        1000      6.25489      0.99598   0.00074161 -4.11699e-06 
        1000      6.31636     0.996375  0.000742547  -4.1064e-06 
        1000      6.37814     0.996735  0.000743405 -4.09493e-06 
        1000      6.44021     0.997062  0.000744189 -4.08268e-06 
        1000      6.50258     0.997358  0.000744902 -4.06975e-06 
        1000      6.56526     0.997626  0.000745551 -4.05632e-06 
        1000      6.62824     0.997867  0.000746141 -4.04258e-06 
        1000      6.69151     0.998085  0.000746676 -4.02881e-06 
        1000      6.75509     0.998281  0.000747162 -4.01531e-06 
        1000      6.81897     0.998456  0.000747604 -4.00248e-06 
        1000      6.88314     0.998614  0.000748005 -3.99076e-06 
        1000      6.94762     0.998754  0.000748371 -3.98065e-06 
        1000       7.0124      0.99888  0.000748705 -3.97275e-06 
        1000      7.07748     0.998992  0.000749012 -3.96771e-06 
        1000      7.14286     0.999091  0.000749295 -3.96626e-06 
        1000      7.20854     0.999179  0.000749557 -3.96924e-06 
        1000      7.27453     0.999257  0.000749801 -3.97753e-06 
        1000      7.34081     0.999326   0.00075003 -3.99211e-06 
        1000      7.40739     0.999387  0.000750227 -3.98557e-06 
        1000      7.47428      0.99944  0.000750395 -3.95478e-06 
        1000      7.54146     0.999487  0.000750556 -3.92701e-06 
        1000      7.60895     0.999528  0.000750709 -3.90209e-06 
        1000      7.67673     0.999563  0.000750852 -3.87987e-06 
        1000      7.74482     0.999594  0.000750986 -3.86024e-06 
        1000       7.8132     0.999621  0.000751108 -3.84311e-06 
        1000      7.88189     0.999644  0.000751218 -3.82844e-06 
        1000      7.95088     0.999664  0.000751313 -3.81618e-06 
        1000      8.02017     0.999681  0.000751393 -3.80628e-06 
        1000      8.08976     0.999696  0.000751454 -3.79872e-06 
        1000      8.15964     0.999708  0.000751498 -3.79342e-06 
        1000      8.22983     0.999719  0.000751524 -3.79028e-06 
        1000      8.30033     0.999728  0.000751533 -3.78914e-06 
        1000      8.37112     0.999736   0.00075153 -3.78972e-06 
        1000      8.44221     0.999742   0.00075152 -3.79166e-06 
        1000       8.5136     0.999748  0.000751513  -3.7944e-06 
        1000      8.58529     0.999753  0.000751522  -3.7972e-06 
        1000      8.65729     0.999757  0.000751566 -3.79906e-06 
        1000      8.72958      0.99976  0.000751669 -3.79868e-06 
        1000      8.80218     0.999762  0.000751862  -3.7944e-06 
        1000      8.87507     0.999765  0.000752004  -3.8048e-06 
        1000      8.94827     0.999767  0.000751878 -3.83717e-06 
        1000      9.02177      0.99977  0.000751783 -3.85283e-06 
        1000      9.09556     0.999772  0.000751719  -3.8555e-06 
        1000      9.16966     0.999773  0.000751683 -3.84843e-06 
        1000      9.24406     0.999775  0.000751675 -3.83438e-06 
        1000      9.31876     0.999776   0.00075169 -3.81572e-06 
        1000      9.39376     0.999777  0.000751724 -3.79438e-06 
        1000      9.46906     0.999778  0.000751773 -3.77194e-06 
        1000      9.54466     0.999779  0.000751833 -3.74965e-06 
        1000      9.62056     0.999779  0.000751898 -3.72841e-06 
        1000      9.69676      0.99978  0.000751965 -3.70884e-06 
        1000      9.77327      0.99978  0.000752031 -3.69129e-06 
        1000      9.85007      0.99978  0.000752093 -3.67585e-06 
        1000      9.92717     0.999781  0.000752148 -3.66239e-06 
        1000      10.0046     0.999781  0.000752194 -3.65056e-06 
        1000      10.0823     0.999781  0.000752231  -3.6398e-06 
        1000      10.1603     0.999781  0.000752257 -3.62939e-06 
        1000      10.2386     0.999782  0.000752274 -3.61842e-06 
        1000      10.3172     0.999782  0.000752281 -3.60582e-06 
        1000      10.3961     0.999782  0.000752279 -3.59035e-06 
        1000      10.4753     0.999782  0.000752241 -3.59668e-06 
        1000      10.5548     0.999783  0.000752203 -3.60668e-06 
        1000      10.6346     0.999783  0.000752173 -3.61519e-06 
        1000      10.7147     0.999783  0.000752151 -3.62195e-06 
        1000      10.7952     0.999784  0.000752135 -3.62678e-06 
        1000      10.8759     0.999784  0.000752127 -3.62948e-06 
        1000      10.9569     0.999784  0.000752125 -3.62996e-06 
        1000      11.0382     0.999785   0.00075213 -3.62813e-06 
        1000      11.1198     0.999785  0.000752141 -3.62399e-06 
        1000      11.2017     0.999785  0.000752158 -3.61755e-06 
        1000      11.2839     0.999786   0.00075218 -3.60889e-06 
        1000      11.3664     0.999786  0.000752208 -3.59814e-06 
        1000      11.4493     0.999786  0.000752239 -3.58547e-06 
        1000      11.5324     0.999787  0.000752274 -3.57107e-06 
        1000      11.6158     0.999787  0.000752312 -3.55521e-06 
        1000      11.6995     0.999787  0.000752351 -3.53814e-06 
        1000      11.7835     0.999788  0.000752391 -3.52016e-06 
        1000      11.8679     0.999788   0.00075243 -3.50159e-06 
        1000      11.9525     0.999788  0.000752469 -3.48276e-06 
        1000      12.0374     0.999789  0.000752506 -3.46398e-06 
        1000      12.1226     0.999789  0.000752539 -3.44557e-06 
        1000      12.2081     0.999789   0.00075257 -3.42786e-06 
        1000       12.294     0.999789  0.000752596 -3.41112e-06 
        1000      12.3801      0.99979  0.000752618 -3.39562e-06 
        1000      12.4665      0.99979  0.000752636 -3.38156e-06 
        1000      12.5532      0.99979  0.000752649 -3.36915e-06 
        1000      12.6402      0.99979  0.000752658 -3.35849e-06 
        1000      12.7276      0.99979  0.000752663 -3.34966e-06 
        1000      12.8152     0.999791  0.000752665 -3.34267e-06 
        1000      12.9031     0.999791  0.000752666 -3.33748e-06 
        1000      12.9913     0.999791  0.000752665 -3.33395e-06 
        1000      13.0799     0.999792  0.000752664 -3.33192e-06 
        1000      13.1687     0.999792  0.000752665 -3.33112e-06 
        1000      13.2578     0.999792  0.000752668 -3.33127e-06 
        1000      13.3473     0.999792  0.000752676   -3.332e-06 
        1000       13.437     0.999793  0.000752689 -3.33292e-06 
        1000       13.527     0.999793  0.000752709 -3.33362e-06 
        1000      13.6173     0.999794  0.000752736 -3.33368e-06 
        1000       13.708     0.999794  0.000752771 -3.33269e-06 
        1000      13.7989     0.999794  0.000752813 -3.33029e-06 
        1000      13.8901     0.999795  0.000752863 -3.32621e-06 
        1000      13.9817     0.999795  0.000752918 -3.32028e-06 
        1000      14.0735     0.999795  0.000752975 -3.31252e-06 
        1000      14.1656     0.999796  0.000753032 -3.30314e-06 
        1000      14.2581     0.999796  0.000753084 -3.29265e-06 
        1000      14.3508     0.999796  0.000753123 -3.28189e-06 
        1000      14.4438     0.999797  0.000753144 -3.27213e-06 
        1000      14.5372     0.999797  0.000753135 -3.26517e-06 
        1000      14.6308     0.999797  0.000753086  -3.2634e-06 
        1000      14.7248     0.999798  0.000752984 -3.26993e-06 
        1000       14.819     0.999798  0.000753004 -3.25786e-06 
        1000      14.9135     0.999798  0.000753125 -3.22621e-06 
        1000      15.0084     0.999799  0.000753181 -3.20303e-06 
        1000      15.1035     0.999799  0.000753194 -3.18685e-06 
        1000       15.199       0.9998  0.000753182 -3.17619e-06 
        1000      15.2947       0.9998  0.000753159 -3.16961e-06 
        1000      15.3907       0.9998  0.000753134 -3.16572e-06 
        1000      15.4871     0.999801  0.000753116 -3.16328e-06 
        1000      15.5837     0.999801  0.000753109 -3.16123e-06 
        1000      15.6807     0.999801  0.000753115 -3.15871e-06 
        1000      15.7779     0.999801  0.000753134 -3.15506e-06 
        1000      15.8755     0.999802  0.000753165 -3.14987e-06 
        1000      15.9733     0.999802  0.000753207 -3.14292e-06 
        1000      16.0714     0.999802  0.000753255 -3.13423e-06 
        1000      16.1699     0.999802  0.000753308 -3.12401e-06 
        1000      16.2686     0.999803  0.000753362 -3.11262e-06 
        1000      16.3677     0.999803  0.000753413 -3.10058e-06 
        1000       16.467     0.999803   0.00075346  -3.0885e-06 
        1000      16.5667     0.999804  0.000753499 -3.07705e-06 
        1000      16.6666     0.999804   0.00075353 -3.06691e-06 
        1000      16.7669     0.999805  0.000753551 -3.05873e-06 
        1000      16.8674     0.999805  0.000753563 -3.05308e-06 
        1000      16.9683     0.999806  0.000753565  -3.0504e-06 
        1000      17.0694     0.999806  0.000753559 -3.05097e-06 
        1000      17.1709     0.999806  0.000753548 -3.05485e-06 
        1000      17.2726     0.999807  0.000753533 -3.06184e-06 
        1000      17.3747     0.999807  0.000753518 -3.07151e-06 
        1000      17.4771     0.999808  0.000753504  -3.0831e-06 
        1000      17.5797     0.999808  0.000753495 -3.09558e-06 
        1000      17.6827     0.999809  0.000753493 -3.10765e-06 
        1000      17.7859     0.999809  0.000753501 -3.11774e-06 
        1000      17.8895     0.999809  0.000753519 -3.12409e-06 
        1000      17.9933      0.99981  0.000753548 -3.12482e-06 
        1000      18.0975      0.99981  0.000753587 -3.11801e-06 
        1000      18.2019      0.99981  0.000753636 -3.10183e-06 
        1000      18.3067      0.99981  0.000753691 -3.07474e-06 
        1000      18.4118     0.999811  0.000753749 -3.03562e-06 
        1000      18.5171     0.999811  0.000753806 -2.98409e-06 
        1000      18.6228     0.999811  0.000753859 -2.92071e-06 
        1000      18.7288     0.999811  0.000753902 -2.84738e-06 
        1000       18.835     0.999812  0.000753933 -2.76768e-06 
        1000      18.9416     0.999812   0.00075395 -2.68736e-06 
        1000      19.0484     0.999813  0.000753958 -2.61479e-06 
        1000      19.1556     0.999813  0.000753962 -2.56159e-06 
        1000      19.2631     0.999813  0.000753977 -2.54325e-06 
        1000      19.3708     0.999814  0.000754027 -2.57987e-06 
        1000      19.4789     0.999814  0.000754148 -2.69697e-06 
        1000      19.5873     0.999814  0.000754366 -2.80377e-06 
        1000      19.6959     0.999815  0.000754461 -2.64225e-06 
        1000      19.8049     0.999815  0.000754371 -2.56982e-06 
        1000      19.9142     0.999816  0.000754061 -2.60023e-06 
        1000      20.0237     0.999817   0.00075348 -2.75089e-06 
        1000      20.1336     0.999817  0.000753463 -2.63402e-06 
        1000      20.2438     0.999818  0.000753635 -2.53571e-06 
        1000      20.3542     0.999818  0.000753822 -2.50644e-06 
        1000       20.465     0.999818  0.000754004 -2.52252e-06 
        1000      20.5761     0.999818  0.000754166 -2.56526e-06 
        1000      20.6875     0.999819    0.0007543 -2.62032e-06 
        1000      20.7991     0.999819  0.000754402 -2.67713e-06 
        1000      20.9111     0.999819  0.000754469 -2.72828e-06 
        1000      21.0234      0.99982  0.000754505 -2.76903e-06 
        1000       21.136      0.99982  0.000754511 -2.79681e-06 
        1000      21.2488      0.99982  0.000754495 -2.81077e-06 
        1000       21.362     0.999821  0.000754461 -2.81139e-06 
        1000      21.4755     0.999821  0.000754416 -2.80012e-06 
        1000      21.5893     0.999822  0.000754368 -2.77907e-06 
        1000      21.7033     0.999822  0.000754321 -2.75072e-06 
        1000      21.8177     0.999823  0.000754281  -2.7177e-06 
        1000      21.9324     0.999823  0.000754253 -2.68259e-06 
        1000      22.0474     0.999824  0.000754241 -2.64777e-06 
        1000      22.1627     0.999824  0.000754245 -2.61526e-06 
        1000      22.2782     0.999824  0.000754269 -2.58668e-06 
        1000      22.3941     0.999825   0.00075431 -2.56318e-06 
        1000      22.5103     0.999825  0.000754367 -2.54539e-06 
        1000      22.6268     0.999826  0.000754438 -2.53347e-06 
        1000      22.7436     0.999826  0.000754519 -2.52709e-06 
        1000      22.8607     0.999827  0.000754606 -2.52553e-06 
        1000       22.978     0.999827  0.000754694 -2.52771e-06 
        1000      23.0957     0.999827  0.000754777  -2.5323e-06 
        1000      23.2137     0.999828  0.000754852 -2.53782e-06 
        1000       23.332     0.999828  0.000754912 -2.54274e-06 
        1000      23.4506     0.999829  0.000754955  -2.5456e-06 
        1000      23.5695     0.999829  0.000754977 -2.54512e-06 
        1000      23.6887     0.999829  0.000754977 -2.54029e-06 
        1000      23.8081      0.99983  0.000754953 -2.53049e-06 
        1000      23.9279      0.99983  0.000754909 -2.51554e-06 
        1000       24.048      0.99983  0.000754845  -2.4958e-06 
        1000      24.1684     0.999831  0.000754769 -2.47213e-06 
        1000      24.2891     0.999831  0.000754685 -2.44592e-06 
        1000      24.4101     0.999831  0.000754602 -2.41905e-06 
        1000      24.5314     0.999832   0.00075453 -2.39372e-06 
        1000       24.653     0.999832  0.000754477 -2.37237e-06 
        1000      24.7749     0.999833  0.000754455 -2.35736e-06 
        1000      24.8971     0.999833  0.000754471  -2.3507e-06 
        1000      25.0196     0.999834  0.000754531 -2.35368e-06 
        1000      25.1424     0.999834  0.000754638 -2.36629e-06 
        1000      25.2655     0.999835  0.000754788 -2.38671e-06 
        1000      25.3889     0.999835   0.00075497  -2.4105e-06 
        1000      25.5125     0.999836  0.000755161 -2.42984e-06 
        1000      25.6365     0.999836  0.000755327 -2.43243e-06 
        1000      25.7608     0.999837  0.000755413 -2.40043e-06 
        1000      25.8854     0.999837  0.000755345 -2.30909e-06 
        1000      26.0103     0.999838  0.000755021 -2.12525e-06 
        1000      26.1355     0.999838  0.000754456 -1.86502e-06 
        1000       26.261     0.999838  0.000755034 -2.09885e-06 
        1000      26.3868     0.999839  0.000755325  -2.2355e-06 
        1000      26.5129     0.999839  0.000755423 -2.30022e-06 
        1000      26.6393      0.99984    0.0007554 -2.31336e-06 
        1000      26.7661      0.99984  0.000755311 -2.29102e-06 
        1000      26.8931     0.999841    0.0007552 -2.24574e-06 
        1000      27.0204     0.999841  0.000755097 -2.18718e-06 
        1000       27.148     0.999842  0.000755024 -2.12289e-06 
        1000      27.2759     0.999842  0.000754993 -2.05899e-06 
        1000      27.4041     0.999842  0.000755009 -2.00104e-06 
        1000      27.5326     0.999843  0.000755068 -1.95474e-06 
        1000      27.6614     0.999843  0.000755158 -1.92687e-06 
        1000      27.7905     0.999843  0.000755256  -1.9261e-06 
        1000      27.9199     0.999844  0.000755326 -1.96396e-06 
        1000      28.0496     0.999844  0.000755316 -2.05575e-06 
        1000      28.1796     0.999844  0.000755157 -2.22161e-06 
        1000      28.3099     0.999845  0.000754976 -2.37075e-06 
        1000      28.4405     0.999845  0.000755321 -2.22573e-06 
        1000      28.5715     0.999846  0.000755572 -2.12174e-06 
        1000      28.7027     0.999847   0.00075574 -2.05112e-06 
        1000      28.8342     0.999847  0.000755837 -2.00715e-06 
        1000       28.966     0.999848  0.000755876 -1.98397e-06 
        1000      29.0981     0.999848   0.00075587 -1.97654e-06 
        1000      29.2305     0.999849  0.000755829 -1.98054e-06 
        1000      29.3632     0.999849  0.000755766  -1.9923e-06 
        1000      29.4963      0.99985   0.00075569 -2.00878e-06 
        1000      29.6296      0.99985  0.000755609 -2.02747e-06 
        1000      29.7632     0.999851  0.000755532 -2.04635e-06 
        1000      29.8971     0.999851  0.000755465 -2.06385e-06 
        1000      30.0313     0.999852  0.000755411 -2.07876e-06 
        1000      30.1658     0.999852  0.000755376 -2.09023e-06 
        1000      30.3007     0.999853   0.00075536  -2.0977e-06 
        1000      30.4358     0.999853  0.000755365 -2.10086e-06 
        1000      30.5712     0.999854   0.00075539 -2.09963e-06 
        1000      30.7069     0.999854  0.000755433 -2.09409e-06 