Variables = x, y, u, v, p

Zone, I=400, F=POINT
         850            0            0            0 -2.05354e-05 
         850     0.000942  0.000286872  5.70032e-11 -2.05353e-05 
         850     0.003768   0.00114749  9.11848e-10 -2.05349e-05 
         850     0.008478   0.00258185    4.616e-09 -2.05343e-05 
         850     0.015075   0.00459086  1.45943e-08 -2.05334e-05 
         850     0.023553   0.00717271  3.56251e-08 -2.05324e-05 
         850     0.033916    0.0103286  7.38701e-08  -2.0531e-05 
         850     0.046163    0.0140583  1.36849e-07 -2.05295e-05 
         850       0.0603    0.0183635  2.33498e-07 -2.05276e-05 
         850     0.076315    0.0232406  3.73992e-07 -2.05256e-05 
         850     0.094215    0.0286918  5.70002e-07 -2.05233e-05 
         850     0.113999    0.0347166  8.34507e-07 -2.05207e-05 
         850     0.135675    0.0413176    1.182e-06  -2.0518e-05 
         850     0.159228    0.0484899  1.62796e-06 -2.05149e-05 
         850     0.184664    0.0562354  2.18954e-06 -2.05117e-05 
         850     0.211985    0.0645544  2.88523e-06 -2.05082e-05 
         850     0.241201    0.0734498  3.73511e-06 -2.05044e-05 
         850      0.27229    0.0829143  4.75967e-06 -2.05004e-05 
         850     0.305263     0.092951  5.98168e-06 -2.04962e-05 
         850     0.340135     0.103564  7.42553e-06 -2.04917e-05 
         850     0.376877     0.114742  9.11512e-06  -2.0487e-05 
         850     0.415503      0.12649  1.10773e-05  -2.0482e-05 
         850     0.456013     0.138806  1.33397e-05 -2.04768e-05 
         850     0.498424     0.151692   1.5932e-05 -2.04713e-05 
         850     0.542703     0.165137  1.88823e-05 -2.04656e-05 
         850     0.588866     0.179142  2.22222e-05 -2.04597e-05 
         850     0.636912     0.193703  2.59843e-05 -2.04534e-05 
         850     0.686864     0.208822  3.02012e-05  -2.0447e-05 
         850     0.738679     0.224481  3.49055e-05 -2.04402e-05 
         850     0.792379      0.24068  4.01328e-05 -2.04332e-05 
         850     0.847962      0.25741  4.59162e-05 -2.04259e-05 
         850     0.905453      0.27467  5.22925e-05 -2.04184e-05 
         850     0.964806     0.292434  5.92918e-05 -2.04106e-05 
         850      1.02604     0.310696  6.69518e-05 -2.04024e-05 
         850      1.08919     0.329448  7.53102e-05  -2.0394e-05 
         850      1.15419     0.348659  8.43917e-05 -2.03852e-05 
         850      1.22108     0.368317  9.42288e-05 -2.03761e-05 
         850      1.28985     0.388397   0.00010485 -2.03667e-05 
         850      1.36054     0.408884  0.000116289 -2.03569e-05 
         850      1.43308     0.429732  0.000128559 -2.03466e-05 
         850      1.50751     0.450916  0.000141659 -2.03349e-05 
         850      1.58382     0.472401  0.000155663 -2.03201e-05 
         850      1.66204     0.494156  0.000170568 -2.03125e-05 
         850      1.74212     0.516118   0.00018633 -2.03053e-05 
         850      1.82409      0.53825  0.000202944 -2.02948e-05 
         850      1.90793     0.560498  0.000220407 -2.02802e-05 
         850       1.9937     0.582815  0.000238722 -2.02622e-05 
         850      2.08131     0.605123  0.000257858 -2.02427e-05 
         850      2.17081     0.627367  0.000277788 -2.02236e-05 
         850      2.26223     0.649488  0.000298466 -2.02065e-05 
         850       2.3555     0.671399  0.000319805 -2.01918e-05 
         850      2.45065     0.693034  0.000341727 -2.01789e-05 
         850      2.54769      0.71432  0.000364138 -2.01663e-05 
         850      2.64665     0.735188  0.000386949 -2.01515e-05 
         850      2.74746     0.755545  0.000410041 -2.01323e-05 
         850      2.85014     0.775327  0.000433324 -2.01072e-05 
         850      2.95472     0.794459  0.000456694 -2.00767e-05 
         850      3.06122      0.81288  0.000480047 -2.00432e-05 
         850      3.16956     0.830511  0.000503229 -2.00117e-05 
         850      3.27979       0.8473  0.000526085  -1.9988e-05 
         850       3.3919     0.863196  0.000548431 -1.99756e-05 
         850      3.50594      0.87816  0.000570102 -1.99694e-05 
         850      3.62181     0.892149  0.000590999 -1.99457e-05 
         850      3.73958     0.905142  0.000611316 -1.98462e-05 
         850      3.85927      0.91713  0.000630412 -1.97932e-05 
         850       3.9808     0.928106  0.000648481 -1.97557e-05 
         850      4.10422     0.938082  0.000665462 -1.97209e-05 
         850      4.22952     0.947074  0.000681254 -1.96877e-05 
         850      4.35675     0.955115  0.000695802 -1.96554e-05 
         850      4.48582      0.96224  0.000709064 -1.96236e-05 
         850      4.61677     0.968498  0.000721045 -1.95919e-05 
         850      4.74961     0.973946  0.000731769   -1.956e-05 
         850      4.88438     0.978644  0.000741279 -1.95276e-05 
         850      5.02099     0.982653  0.000749625 -1.94945e-05 
         850      5.15948     0.986039   0.00075688 -1.94605e-05 
         850      5.29985      0.98887   0.00076312 -1.94252e-05 
         850      5.44217      0.99121   0.00076843 -1.93882e-05 
         850      5.58631     0.993122  0.000772893 -1.93491e-05 
         850      5.73233     0.994666  0.000776598 -1.93073e-05 
         850      5.88024     0.995897  0.000779634 -1.92623e-05 
         850       6.0301     0.996868  0.000782088 -1.92137e-05 
         850      6.18178     0.997622  0.000784043  -1.9161e-05 
         850      6.33534     0.998202   0.00078558 -1.91045e-05 
         850      6.49085     0.998642  0.000786773 -1.90446e-05 
         850      6.64818     0.998971   0.00078769 -1.89827e-05 
         850      6.80739     0.999214  0.000788387 -1.89211e-05 
         850      6.96849     0.999391  0.000788912 -1.88637e-05 
         850      7.13154     0.999518  0.000789296 -1.88161e-05 
         850      7.29641     0.999607  0.000789556 -1.87866e-05 
         850      7.46316     0.999669  0.000789724 -1.87491e-05 
         850       7.6318      0.99971  0.000789867 -1.86587e-05 
         850      7.80239     0.999738  0.000789962 -1.85832e-05 
         850      7.97479     0.999757  0.000790046 -1.85209e-05 
         850      8.14908     0.999769  0.000790153 -1.84703e-05 
         850      8.32526     0.999778  0.000790283  -1.8429e-05 
         850      8.50338     0.999785   0.00079036 -1.83913e-05 
         850      8.68333     0.999787  0.000790144 -1.83452e-05 
         850      8.86515     0.999789  0.000790255 -1.82754e-05 
         850      9.04894     0.999791  0.000790359 -1.82034e-05 
         850      9.23453     0.999793  0.000790255 -1.81336e-05 
         850      9.42201     0.999793  0.000790142 -1.80663e-05 
         850      9.61137     0.999794  0.000790101 -1.80016e-05 
         850      9.80269     0.999795  0.000790144 -1.79396e-05 
         850      9.99583     0.999796   0.00079024 -1.78803e-05 
         850      10.1908     0.999797  0.000790341 -1.78231e-05 
         850      10.3877     0.999797  0.000790406 -1.77669e-05 
         850      10.5866     0.999798  0.000790369 -1.76906e-05 
         850      10.7873     0.999799  0.000790301  -1.7617e-05 
         850      10.9898     0.999799  0.000790242 -1.75501e-05 
         850      11.1943       0.9998  0.000790206 -1.74861e-05 
         850      11.4007       0.9998  0.000790198 -1.74221e-05 
         850      11.6089     0.999801  0.000790215 -1.73567e-05 
         850       11.819     0.999801   0.00079025  -1.7289e-05 
         850       12.031     0.999802  0.000790289 -1.72192e-05 
         850      12.2449     0.999803   0.00079032 -1.71479e-05 
         850      12.4606     0.999804  0.000790335 -1.70758e-05 
         850      12.6782     0.999805  0.000790333 -1.70039e-05 
         850      12.8978     0.999805   0.00079032 -1.69326e-05 
         850      13.1192     0.999806   0.00079031 -1.68625e-05 
         850      13.3425     0.999806  0.000790318 -1.67933e-05 
         850      13.5677     0.999807  0.000790351 -1.67245e-05 
         850      13.7948     0.999808  0.000790396 -1.66552e-05 
         850      14.0237     0.999809  0.000790399 -1.65844e-05 
         850      14.2546      0.99981  0.000790346 -1.65246e-05 
         850      14.4873     0.999811  0.000790304  -1.6469e-05 
         850      14.7219     0.999811  0.000790251 -1.64054e-05 
         850      14.9584     0.999812  0.000790212 -1.63364e-05 
         850      15.1968     0.999813  0.000790204 -1.62624e-05 
         850      15.4371     0.999813  0.000790232 -1.61831e-05 
         850      15.6792     0.999814   0.00079029  -1.6098e-05 
         850      15.9232     0.999815  0.000790364 -1.60065e-05 
         850      16.1691     0.999816  0.000790436 -1.59094e-05 
         850       16.417     0.999817  0.000790488 -1.58083e-05 
         850      16.6666     0.999818  0.000790508 -1.57071e-05 
         850      16.9182     0.999818  0.000790491  -1.5611e-05 
         850      17.1716     0.999819   0.00079045 -1.55272e-05 
         850       17.427      0.99982  0.000790417  -1.5465e-05 
         850      17.6842     0.999821  0.000790449 -1.54353e-05 
         850      17.9433     0.999822  0.000790497 -1.53572e-05 
         850      18.2042     0.999823  0.000790473 -1.52221e-05 
         850      18.4672     0.999823  0.000790465 -1.51191e-05 
         850      18.7319     0.999824  0.000790469 -1.50343e-05 
         850      18.9985     0.999825  0.000790495 -1.49571e-05 
         850       19.267     0.999826  0.000790552 -1.48793e-05 
         850      19.5375     0.999827  0.000790626 -1.47954e-05 
         850      19.8098     0.999828  0.000790672 -1.47024e-05 
         850       20.084     0.999829   0.00079064 -1.46007e-05 
         850      20.3601     0.999829  0.000790554 -1.44954e-05 
         850       20.638      0.99983  0.000790678  -1.4397e-05 
         850      20.9178     0.999832  0.000790837 -1.42953e-05 
         850      21.1995     0.999833   0.00079064 -1.41926e-05 
         850      21.4832     0.999833  0.000790797 -1.41165e-05 
         850      21.7687     0.999834  0.000790931 -1.40526e-05 
         850       22.056     0.999835  0.000790911 -1.39922e-05 
         850      22.3452     0.999836  0.000790754 -1.39286e-05 
         850      22.6365     0.999837  0.000790548 -1.38528e-05 
         850      22.9295     0.999838    0.0007904 -1.37499e-05 
         850      23.2243     0.999839  0.000790399 -1.35951e-05 
         850      23.5211      0.99984   0.00079053 -1.34136e-05 
         850      23.8199     0.999841   0.00079057 -1.34057e-05 
         850      24.1204     0.999842  0.000790719 -1.33416e-05 
         850      24.4228     0.999843  0.000790865 -1.32434e-05 
         850      24.7272     0.999844  0.000790949 -1.31273e-05 
         850      25.0334     0.999845  0.000790949 -1.30052e-05 
         850      25.3415     0.999846  0.000790879 -1.28849e-05 
         850      25.6514     0.999847  0.000790773 -1.27711e-05 
         850      25.9634     0.999848  0.000790676  -1.2666e-05 
         850      26.2771     0.999849  0.000790627 -1.25698e-05 
         850      26.5927      0.99985  0.000790651 -1.24812e-05 
         850      26.9102     0.999851  0.000790743 -1.23977e-05 
         850      27.2297     0.999852  0.000790864 -1.23159e-05 
         850       27.551     0.999853  0.000790945 -1.22319e-05 
         850      27.8741     0.999854  0.000790919 -1.21417e-05 
         850      28.1991     0.999855   0.00079077 -1.20413e-05 
         850      28.5262     0.999857  0.000790634 -1.19276e-05 
         850       28.855     0.999858  0.000790957 -1.17988e-05 
         850      29.1856     0.999858   0.00079092 -1.16673e-05 
         850      29.5183     0.999859   0.00079077 -1.15446e-05 
         850      29.8528      0.99986  0.000790922 -1.14273e-05 
         850      30.1891     0.999862  0.000791078 -1.13158e-05 
         850      30.5273     0.999863  0.000791131 -1.12104e-05 
         850      30.8676     0.999865  0.000791078 -1.11109e-05 
         850      31.2096     0.999866  0.000790971 -1.10166e-05 
         850      31.5534     0.999866  0.000790871 -1.09259e-05 
         850      31.8992     0.999867  0.000790822 -1.08367e-05 
         850      32.2469     0.999868  0.000790847 -1.07464e-05 
         850      32.5965     0.999869  0.000790939 -1.06521e-05 
         850      32.9479     0.999871  0.000791068  -1.0551e-05 
         850      33.3012     0.999872  0.000791193 -1.04406e-05 
         850      33.6565     0.999873  0.000791272 -1.03191e-05 
         850      34.0135     0.999874  0.000791276  -1.0186e-05 
         850      34.3725     0.999876  0.000791193 -1.00419e-05 
         850      34.7334     0.999877  0.000791037 -9.88911e-06 
         850      35.0962     0.999878  0.000790846 -9.73204e-06 
         850      35.4608     0.999879  0.000790678 -9.57657e-06 
         850      35.8272      0.99988  0.000790597  -9.4303e-06 
         850      36.1957     0.999881  0.000790663 -9.30189e-06 
         850       36.566     0.999883  0.000790917 -9.20053e-06 
         850      36.9381     0.999884  0.000791365 -9.13443e-06 
         850      37.3121     0.999886  0.000791986 -9.10947e-06 
         850      37.6882     0.999887  0.000791948 -8.94073e-06 
         850       38.066     0.999888  0.000791371   -8.762e-06 
         850      38.4456     0.999889  0.000790578 -8.61721e-06 
         850      38.8272      0.99989  0.000790257 -8.47546e-06 
         850      39.2108      0.99989  0.000792145 -8.29337e-06 
         850      39.5961     0.999892  0.000790507 -8.37507e-06 
         850      39.9833     0.999894  0.000790493 -8.27301e-06 
         850      40.3724     0.999895   0.00079129 -7.99997e-06 
         850      40.7635     0.999896  0.000792116 -7.56996e-06 
         850      41.1564     0.999898  0.000791523 -7.61734e-06 
         850      41.5511       0.9999  0.000791482  -7.6111e-06 
         850      41.9479     0.999901  0.000791622 -7.54633e-06 
         850      42.3464     0.999902  0.000791709 -7.43546e-06 
         850      42.7468     0.999903  0.000791648 -7.29276e-06 
         850      43.1491     0.999904  0.000791442 -7.13251e-06 
         850      43.5534     0.999905  0.000791154 -6.96736e-06 
         850      43.9595     0.999906  0.000790871 -6.80763e-06 
         850      44.3674     0.999908  0.000790674 -6.66024e-06 
         850      44.7772     0.999909  0.000790616 -6.52882e-06 
         850      45.1891     0.999911  0.000790712 -6.41369e-06 
         850      45.6027     0.999912  0.000790932 -6.31251e-06 
         850      46.0181     0.999914  0.000791215  -6.2207e-06 
         850      46.4355     0.999915  0.000791482 -6.13248e-06 
         850      46.8549     0.999916  0.000791656 -6.04176e-06 
         850       47.276     0.999918  0.000791693 -5.94326e-06 
         850       47.699     0.999919  0.000791595 -5.83319e-06 
         850      48.1241     0.999921  0.000791424 -5.70997e-06 
         850      48.5508     0.999922  0.000791286 -5.57474e-06 
         850      48.9795     0.999923  0.000791286 -5.43094e-06 
         850        49.41     0.999923  0.000791434 -5.28366e-06 
         850      49.8426     0.999925   0.00079149 -5.13793e-06 
         850      50.2769     0.999929  0.000790709 -4.99636e-06 
         850      50.7131     0.999928  0.000791456 -4.91569e-06 
         850      51.1512     0.999929   0.00079127 -4.80958e-06 
         850      51.5914      0.99993  0.000790908 -4.67497e-06 
         850      52.0332     0.999932   0.00079076 -4.51214e-06 
         850      52.4769     0.999934  0.000790856 -4.32149e-06 
         850      52.9225     0.999935  0.000791083 -4.10678e-06 
         850      53.3702     0.999937  0.000791319 -3.87677e-06 
         850      53.8196     0.999938  0.000791482 -3.64608e-06 
         850      54.2709     0.999939  0.000791547 -3.43345e-06 
         850      54.7242     0.999941  0.000791528 -3.25917e-06 
         850      55.1792     0.999942  0.000791458 -3.14032e-06 
         850      55.6362     0.999944  0.000791367 -3.08321e-06 
         850       56.095     0.999946   0.00079128 -3.07404e-06 
         850      56.5558     0.999948  0.000791223 -3.06649e-06 
         850      57.0184      0.99995  0.000791259 -2.96637e-06 
         850      57.4829      0.99995  0.000791512 -2.61293e-06 
         850      57.9492     0.999951  0.000791813  -2.1748e-06 
         850      58.4176     0.999953  0.000791474 -2.47189e-06 
         850      58.8877     0.999955   0.00079138 -2.45272e-06 
         850      59.3597     0.999956  0.000791328 -2.25588e-06 
         850      59.8336     0.999958  0.000791255   -1.977e-06 
         850      60.3096     0.999959  0.000791175 -1.67798e-06 
         850      60.7872     0.999961  0.000791137 -1.39573e-06 
         850      61.2667     0.999963  0.000791179 -1.14837e-06 
         850      61.7484     0.999965   0.00079129 -9.40987e-07 
         850      62.2317     0.999967  0.000791378 -7.69197e-07 
         850      62.7168     0.999969  0.000791247 -6.19709e-07 
         850      63.2039     0.999966  0.000791586 -6.28376e-07 
         850      63.6931     0.999966  0.000791707 -5.80512e-07 
         850      64.1839     0.999968  0.000791681 -4.62743e-07 
         850      64.6766     0.999971  0.000791689 -3.14395e-07 
         850      65.1712     0.999974  0.000791767 -1.59418e-07 
         850      65.6679     0.999976  0.000791873 -1.00606e-08 
         850      66.1663     0.999978  0.000791947  1.29632e-07 
         850      66.6665     0.999979  0.000791938  2.61365e-07 
         850      67.1687      0.99998  0.000791826  3.89986e-07 
         850      67.6729     0.999981  0.000791624  5.21679e-07 
         850      68.1788     0.999983  0.000791372  6.62262e-07 
         850      68.6866     0.999984  0.000791125  8.16407e-07 
         850      69.1963     0.999986  0.000790944  9.86741e-07 
         850      69.7081     0.999988  0.000790875  1.17363e-06 
         850      70.2215      0.99999  0.000790945  1.37487e-06 
         850      70.7368     0.999992  0.000791149  1.58641e-06 
         850      71.2543     0.999994   0.00079145  1.80267e-06 
         850      71.7734     0.999996  0.000791786  2.01699e-06 
         850      72.2943     0.999997  0.000792078  2.22303e-06 
         850      72.8172     0.999998  0.000792246  2.41536e-06 
         850      73.3422     0.999999   0.00079223  2.59059e-06 
         850      73.8688            1   0.00079201    2.748e-06 
         850      74.3973            1  0.000791621  2.89071e-06 
         850      74.9277            1  0.000791162  3.02591e-06 
         850      75.4602            1  0.000790789  3.16516e-06 
         850      75.9944      1.00001  0.000790681  3.32396e-06 
         850      76.5305      1.00001  0.000790975  3.52118e-06 
         850      77.0684      1.00001  0.000791654  3.77739e-06 
         850      77.6084      1.00001  0.000792372  4.11268e-06 
         850      78.1502      1.00001   0.00079223  4.52174e-06 
         850      78.6937      1.00001  0.000788705  4.52715e-06 
         850      79.2394      1.00002  0.000791079  4.80314e-06 
         850      79.7868      1.00002  0.000793113  4.60258e-06 
         850      80.3361      1.00002  0.000792808  4.59469e-06 
         850      80.8872      1.00002  0.000791804  4.71806e-06 
         850      81.4404      1.00002  0.000790942   4.9238e-06 
         850      81.9953      1.00002  0.000790539  5.17377e-06 
         850      82.5521      1.00002  0.000790595  5.43979e-06 
         850      83.1108      1.00003  0.000790956  5.70192e-06 
         850      83.6715      1.00003  0.000791419  5.94742e-06 
         850       84.234      1.00003  0.000791807   6.1691e-06 
         850      84.7983      1.00003  0.000792002  6.36475e-06 
         850      85.3645      1.00004  0.000791965  6.53564e-06 
         850      85.9328      1.00004  0.000791724  6.68564e-06 
         850      86.5028      1.00004  0.000791359  6.82008e-06 
         850      87.0747      1.00004  0.000790975  6.94523e-06 
         850      87.6486      1.00004  0.000790676  7.06739e-06 
         850      88.2243      1.00004   0.00079054  7.19216e-06 
         850      88.8018      1.00004  0.000790603  7.32419e-06 
         850      89.3812      1.00005  0.000790847  7.46669e-06 
         850      89.9627      1.00005  0.000791207   7.6213e-06 
         850      90.5458      1.00005   0.00079158  7.78783e-06 
         850      91.1309      1.00005  0.000791849  7.96478e-06 
         850      91.7178      1.00005  0.000791915   8.1494e-06 
         850      92.3069      1.00006  0.000791725  8.33841e-06 
         850      92.8976      1.00006  0.000791304  8.52843e-06 
         850      93.4901      1.00006  0.000790772   8.7174e-06 
         850      94.0846      1.00006  0.000790334  8.90558e-06 
         850      94.6812      1.00006  0.000790241   9.0972e-06 
         850      95.2794      1.00006   0.00079069  9.30189e-06 
         850      95.8796      1.00007  0.000791659  9.53733e-06 
         850      96.4818      1.00007  0.000792647   9.8314e-06 
         850      97.0857      1.00007  0.000792286  1.02246e-05 
         850      97.6915      1.00007  0.000789382   1.0663e-05 
         850      98.2991      1.00008  0.000791844  1.05665e-05 
         850      98.9089      1.00008  0.000792168  1.05973e-05 
         850      99.5203      1.00008  0.000791516  1.07148e-05 
         850      100.134      1.00008  0.000790624  1.08906e-05 
         850      100.749      1.00008  0.000789913  1.11056e-05 
         850      101.366      1.00008  0.000789573  1.13468e-05 
         850      101.985      1.00008  0.000789645  1.16045e-05 
         850      102.606      1.00008  0.000790069  1.18708e-05 
         850      103.229      1.00008  0.000790728  1.21377e-05 
         850      103.854      1.00009  0.000791477  1.23964e-05 
         850       104.48      1.00009  0.000792162  1.26367e-05 
         850      105.108       1.0001  0.000792623  1.28484e-05 
         850      105.739       1.0001  0.000792701  1.30223e-05 
         850      106.371       1.0001   0.00079223  1.31526e-05 
         850      107.005      1.00009  0.000791526  1.33161e-05 
         850      107.641       1.0001  0.000791645  1.36539e-05 
         850      108.279       1.0001  0.000791213  1.39086e-05 
         850      108.919       1.0001  0.000790586  1.41121e-05 
         850       109.56       1.0001  0.000790019  1.42898e-05 
         850      110.204       1.0001  0.000789662  1.44598e-05 
         850      110.849      1.00011  0.000789581  1.46344e-05 
         850      111.497      1.00011  0.000789766  1.48198e-05 
         850      112.146      1.00011  0.000790149   1.5018e-05 
         850      112.797      1.00011  0.000790629  1.52272e-05 
         850       113.45      1.00012  0.000791087  1.54432e-05 
         850      114.105      1.00012  0.000791416  1.56598e-05 
         850      114.761      1.00012  0.000791534  1.58706e-05 
         850       115.42      1.00012  0.000791407  1.60698e-05 
         850      116.081      1.00012  0.000791057  1.62528e-05 
         850      116.743      1.00013  0.000790567  1.64168e-05 
         850      117.407      1.00013  0.000790072  1.65615e-05 
         850      118.073      1.00013  0.000789734  1.66892e-05 
         850      118.741      1.00013    0.0007897  1.68041e-05 
         850      119.411      1.00013  0.000790031  1.69117e-05 
         850      120.083      1.00014  0.000790608  1.70177e-05 
         850      120.757      1.00014  0.000790999  1.71257e-05 
         850      121.432      1.00014  0.000790279  1.72346e-05 
         850       122.11      1.00013  0.000788286  1.73774e-05 
         850      122.789      1.00013  0.000790487  1.76617e-05 
         850       123.47      1.00014  0.000791156  1.78996e-05 
         850      124.153      1.00015  0.000791014  1.81424e-05 
         850      124.838      1.00015  0.000790543  1.84207e-05 
         850      125.525      1.00016  0.000790043   1.8748e-05 
         850      126.214      1.00016  0.000789679  1.91251e-05 
         850      126.905      1.00017  0.000789517  1.95426e-05 
         850      127.597      1.00017  0.000789555  1.99856e-05 
         850      128.292      1.00017  0.000789755  2.04353e-05 
         850      128.988      1.00016  0.000790056  2.08712e-05 
         850      129.686      1.00016  0.000790392  2.12746e-05 
         850      130.386      1.00016  0.000790704  2.16287e-05 
         850      131.088      1.00016  0.000790944  2.19208e-05 
         850      131.792      1.00016   0.00079108  2.21427e-05 
         850      132.497      1.00016  0.000791098  2.22921e-05 
         850      133.205      1.00016  0.000791001  2.23721e-05 
         850      133.915      1.00017  0.000790804  2.23913e-05 
         850      134.626      1.00018  0.000790535  2.23639e-05 
         850      135.339      1.00018  0.000790227  2.23085e-05 
         850      136.054      1.00019  0.000789915  2.22473e-05 
         850      136.771      1.00019  0.000789635  2.22048e-05 
         850       137.49       1.0002  0.000789416  2.22068e-05 
         850      138.211       1.0002   0.00078928  2.22779e-05 
         850      138.934       1.0002  0.000789241  2.24402e-05 
         850      139.658       1.0002  0.000789301  2.27108e-05 
         850      140.385       1.0002  0.000789451     2.31e-05 
         850      141.113       1.0002  0.000789674  2.36085e-05 
         850      141.843      1.00019  0.000789941  2.42257e-05 
         850      142.575      1.00019  0.000790219  2.49257e-05 
         850      143.309      1.00019  0.000790463  2.56665e-05 
         850      144.045      1.00019  0.000790623  2.63867e-05 
         850      144.783       1.0002  0.000790638  2.70034e-05 
         850      145.523      1.00021  0.000790431  2.74091e-05 
         850      146.264      1.00022  0.000789899  2.74708e-05 
         850      147.007      1.00023  0.000788902  2.70277e-05 
         850      147.753      1.00023  0.000787235  2.58888e-05 
         850        148.5      1.00021  0.000784822  2.40203e-05 
         850      149.249      1.00014  0.000788123  2.68665e-05 
         850          150            1  0.000789481  2.75875e-05 
