Variables = x, y, u, v, p

Zone, I=1000, F=POINT
         150            0            0            0 -0.000103742 
         150      0.00015  7.14195e-05  5.64029e-12 -0.000103742 
         150     0.000601  0.000286154  9.05474e-11 -0.000103742 
         150     0.001352  0.000643728   4.5823e-10 -0.000103741 
         150     0.002404   0.00114462  1.44878e-09 -0.000103741 
         150     0.003757   0.00178882  3.53849e-09  -0.00010374 
         150      0.00541   0.00257587  7.33727e-09 -0.000103739 
         150     0.007364   0.00350624  1.35948e-08 -0.000103738 
         150     0.009619   0.00457992  2.31958e-08 -0.000103737 
         150     0.012174   0.00579645  3.71554e-08 -0.000103736 
         150      0.01503    0.0071563  5.66343e-08 -0.000103734 
         150     0.018186     0.008659  8.29169e-08 -0.000103733 
         150     0.021643     0.010305  1.17439e-07 -0.000103731 
         150       0.0254    0.0120939  1.61753e-07 -0.000103729 
         150     0.029458    0.0140261  2.17571e-07 -0.000103727 
         150     0.033817    0.0161016   2.8673e-07 -0.000103725 
         150     0.038476      0.01832  3.71188e-07 -0.000103723 
         150     0.043436    0.0206817  4.73069e-07  -0.00010372 
         150     0.048697    0.0231867  5.94621e-07 -0.000103717 
         150     0.054258    0.0258346  7.38203e-07 -0.000103715 
         150      0.06012    0.0286259  9.06355e-07 -0.000103712 
         150     0.066282      0.03156   1.1017e-06 -0.000103709 
         150     0.072745    0.0346374  1.32707e-06 -0.000103705 
         150     0.079508    0.0378576  1.58534e-06 -0.000103702 
         150     0.086572    0.0412212  1.87961e-06 -0.000103698 
         150     0.093937    0.0447281   2.2131e-06 -0.000103695 
         150     0.101602    0.0483778  2.58908e-06 -0.000103691 
         150     0.109568    0.0521707  3.01108e-06 -0.000103687 
         150     0.117835     0.056107  3.48271e-06 -0.000103683 
         150     0.126402     0.060186  4.00765e-06 -0.000103678 
         150      0.13527    0.0644082  4.58984e-06 -0.000103674 
         150     0.144438    0.0687731  5.23323e-06 -0.000103669 
         150     0.153907    0.0732812  5.94203e-06 -0.000103665 
         150     0.163676    0.0779318  6.72044e-06  -0.00010366 
         150     0.173746    0.0827256  7.57297e-06 -0.000103655 
         150     0.184117    0.0876622  8.50417e-06 -0.000103649 
         150     0.194788    0.0927413  9.51862e-06 -0.000103644 
         150      0.20576    0.0979632  1.06212e-05 -0.000103638 
         150     0.217033     0.103328   1.1817e-05 -0.000103633 
         150     0.228606     0.108834  1.31108e-05 -0.000103627 
         150      0.24048     0.114484  1.45079e-05 -0.000103621 
         150     0.252654     0.120274  1.60137e-05 -0.000103615 
         150     0.265129     0.126207  1.76336e-05 -0.000103608 
         150     0.277904     0.132282  1.93731e-05 -0.000103602 
         150     0.290981     0.138498  2.12382e-05 -0.000103595 
         150     0.304357     0.144855  2.32341e-05 -0.000103589 
         150     0.318035     0.151354  2.53674e-05 -0.000103582 
         150     0.332013     0.157993  2.76437e-05 -0.000103575 
         150     0.346291     0.164772  3.00691e-05 -0.000103567 
         150      0.36087     0.171691  3.26501e-05  -0.00010356 
         150      0.37575     0.178749  3.53929e-05 -0.000103552 
         150      0.39093     0.185946  3.83037e-05 -0.000103545 
         150     0.406411     0.193282  4.13894e-05 -0.000103537 
         150     0.422193     0.200755  4.46564e-05 -0.000103528 
         150     0.438275     0.208366  4.81112e-05  -0.00010352 
         150     0.454657     0.216112  5.17605e-05 -0.000103512 
         150     0.471341     0.223995  5.56115e-05 -0.000103503 
         150     0.488325     0.232011  5.96706e-05 -0.000103494 
         150     0.505609     0.240162  6.39445e-05 -0.000103485 
         150     0.523194     0.248445  6.84403e-05 -0.000103476 
         150      0.54108      0.25686   7.3165e-05 -0.000103467 
         150     0.559266     0.265405  7.81251e-05 -0.000103457 
         150     0.577753     0.274079  8.33278e-05 -0.000103447 
         150     0.596541      0.28288  8.87797e-05 -0.000103437 
         150     0.615629     0.291808  9.44875e-05 -0.000103427 
         150     0.635018     0.300859  0.000100458 -0.000103417 
         150     0.654707     0.310033  0.000106697 -0.000103406 
         150     0.674697     0.319328  0.000113213 -0.000103395 
         150     0.694987      0.32874   0.00012001 -0.000103384 
         150     0.715579      0.33827  0.000127096 -0.000103373 
         150      0.73647     0.347912  0.000134475 -0.000103361 
         150     0.757663     0.357666  0.000142155  -0.00010335 
         150     0.779155     0.367528   0.00015014 -0.000103338 
         150     0.800949     0.377496  0.000158437 -0.000103325 
         150     0.823043     0.387566  0.000167049 -0.000103313 
         150     0.845438     0.397735  0.000175982   -0.0001033 
         150     0.868133     0.407999   0.00018524 -0.000103286 
         150     0.891129     0.418355  0.000194827 -0.000103273 
         150     0.914426       0.4288  0.000204747 -0.000103259 
         150     0.938023     0.439327  0.000215002 -0.000103245 
         150      0.96192     0.449934  0.000225596  -0.00010323 
         150     0.986119     0.460616   0.00023653 -0.000103215 
         150      1.01062     0.471368  0.000247807   -0.0001032 
         150      1.03542     0.482184  0.000259426 -0.000103184 
         150      1.06052     0.493059   0.00027139 -0.000103168 
         150      1.08592     0.503989  0.000283696 -0.000103152 
         150      1.11162     0.514966  0.000296345 -0.000103135 
         150      1.13762     0.525985  0.000309335 -0.000103117 
         150      1.16392      0.53704  0.000322664 -0.000103099 
         150      1.19053     0.548124  0.000336327 -0.000103081 
         150      1.21743      0.55923  0.000350321 -0.000103062 
         150      1.24463     0.570351  0.000364641 -0.000103043 
         150      1.27214      0.58148  0.000379282 -0.000103023 
         150      1.29994     0.592608  0.000394237 -0.000103002 
         150      1.32805      0.60373  0.000409498 -0.000102981 
         150      1.35646     0.614835  0.000425056 -0.000102959 
         150      1.38517     0.625917  0.000440903 -0.000102937 
         150      1.41417     0.636967  0.000457027 -0.000102914 
         150      1.44348     0.647975  0.000473417  -0.00010289 
         150      1.47309     0.658935  0.000490061 -0.000102866 
         150        1.503     0.669835  0.000506945 -0.000102841 
         150      1.53321     0.680669  0.000524054 -0.000102815 
         150      1.56372     0.691426  0.000541374 -0.000102789 
         150      1.59453     0.702097  0.000558887 -0.000102762 
         150      1.62565     0.712673  0.000576575 -0.000102734 
         150      1.65706     0.723144   0.00059442 -0.000102705 
         150      1.68877     0.733501  0.000612403 -0.000102675 
         150      1.72079     0.743736  0.000630504 -0.000102644 
         150       1.7531     0.753838    0.0006487 -0.000102613 
         150      1.78572     0.763799   0.00066697 -0.000102581 
         150      1.81863      0.77361  0.000685291 -0.000102547 
         150      1.85185     0.783261  0.000703639 -0.000102513 
         150      1.88536     0.792744  0.000721989 -0.000102478 
         150      1.91918      0.80205  0.000740317 -0.000102442 
         150       1.9533     0.811172  0.000758597 -0.000102405 
         150      1.98772       0.8201  0.000776804 -0.000102367 
         150      2.02244     0.828829  0.000794911 -0.000102329 
         150      2.05746      0.83735  0.000812892 -0.000102289 
         150      2.09278     0.845656   0.00083072 -0.000102248 
         150       2.1284     0.853743   0.00084837 -0.000102206 
         150      2.16432     0.861603  0.000865814 -0.000102163 
         150      2.20054     0.869231  0.000883027  -0.00010212 
         150      2.23707     0.876623  0.000899985 -0.000102075 
         150      2.27389     0.883775  0.000916661 -0.000102029 
         150      2.31101     0.890683  0.000933032 -0.000101982 
         150      2.34844     0.897345  0.000949075 -0.000101934 
         150      2.38617     0.903758  0.000964767 -0.000101885 
         150      2.42419      0.90992  0.000980088 -0.000101835 
         150      2.46252     0.915832  0.000995017 -0.000101785 
         150      2.50114     0.921492   0.00100954 -0.000101733 
         150      2.54007     0.926902   0.00102363  -0.00010168 
         150       2.5793     0.932062   0.00103728 -0.000101626 
         150      2.61883     0.936974   0.00105048 -0.000101571 
         150      2.65866     0.941641   0.00106321 -0.000101516 
         150      2.69879     0.946066   0.00107546 -0.000101459 
         150      2.73922     0.950254   0.00108723 -0.000101401 
         150      2.77995     0.954207    0.0010985 -0.000101343 
         150      2.82098     0.957931   0.00110929 -0.000101284 
         150      2.86232     0.961433   0.00111957 -0.000101223 
         150      2.90395     0.964717   0.00112936 -0.000101162 
         150      2.94588      0.96779   0.00113865 -0.000101101 
         150      2.98812     0.970659   0.00114746 -0.000101038 
         150      3.03065     0.973332   0.00115577 -0.000100974 
         150      3.07349     0.975815   0.00116361  -0.00010091 
         150      3.11662     0.978116   0.00117098 -0.000100845 
         150      3.16006     0.980245    0.0011779 -0.000100779 
         150       3.2038     0.982207   0.00118436 -0.000100713 
         150      3.24783     0.984013   0.00119039 -0.000100646 
         150      3.29217      0.98567     0.001196 -0.000100578 
         150      3.33681     0.987185   0.00120121 -0.000100509 
         150      3.38175     0.988569   0.00120602  -0.00010044 
         150      3.42699     0.989828   0.00121046 -0.000100369 
         150      3.47253      0.99097   0.00121455 -0.000100299 
         150      3.51838     0.992004   0.00121829 -0.000100227 
         150      3.56452     0.992936   0.00122172 -0.000100155 
         150      3.61096     0.993775   0.00122484 -0.000100083 
         150       3.6577     0.994527   0.00122769  -0.00010001 
         150      3.70475       0.9952   0.00123027 -9.99364e-05 
         150      3.75209       0.9958   0.00123262 -9.98627e-05 
         150      3.79974     0.996334    0.0012347  -9.9789e-05 
         150      3.84768     0.996806   0.00123658  -9.9713e-05 
         150      3.89593     0.997224   0.00123828 -9.96363e-05 
         150      3.94448     0.997591    0.0012398 -9.95596e-05 
         150      3.99332     0.997913   0.00124114  -9.9483e-05 
         150      4.04247     0.998195   0.00124234 -9.94063e-05 
         150      4.09192     0.998441   0.00124339  -9.9329e-05 
         150      4.14167     0.998654   0.00124432 -9.92509e-05 
         150      4.19172     0.998839   0.00124513 -9.91716e-05 
         150      4.24207     0.998998   0.00124585 -9.90912e-05 
         150      4.29272     0.999135   0.00124648 -9.90097e-05 
         150      4.34367     0.999253   0.00124703 -9.89275e-05 
         150      4.39493     0.999353   0.00124752  -9.8845e-05 
         150      4.44648     0.999438   0.00124794 -9.87627e-05 
         150      4.49833      0.99951    0.0012483  -9.8681e-05 
         150      4.55049     0.999571   0.00124861 -9.86002e-05 
         150      4.60294     0.999622   0.00124888 -9.85199e-05 
         150       4.6557     0.999665   0.00124911 -9.84396e-05 
         150      4.70875     0.999701    0.0012493 -9.83578e-05 
         150      4.76211      0.99973   0.00124945 -9.82722e-05 
         150      4.81577     0.999755   0.00124962 -9.81833e-05 
         150      4.86972     0.999775   0.00124976  -9.8094e-05 
         150      4.92398     0.999792   0.00124989 -9.80037e-05 
         150      4.97854     0.999806   0.00124999 -9.79125e-05 
         150       5.0334     0.999817   0.00125007 -9.78205e-05 
         150      5.08856     0.999826   0.00125012 -9.77335e-05 
         150      5.14402     0.999833    0.0012502  -9.7654e-05 
         150      5.19978     0.999839   0.00125026  -9.7568e-05 
         150      5.25584     0.999844   0.00125031  -9.7479e-05 
         150      5.31221     0.999847   0.00125036 -9.73888e-05 
         150      5.36887      0.99985   0.00125041 -9.72976e-05 
         150      5.42584     0.999853   0.00125046 -9.72051e-05 
         150       5.4831     0.999855   0.00125051 -9.71131e-05 
         150      5.54066     0.999856   0.00125056 -9.70253e-05 
         150      5.59853     0.999858   0.00125059 -9.69354e-05 
         150       5.6567     0.999858   0.00125062 -9.68434e-05 
         150      5.71516     0.999859   0.00125065 -9.67497e-05 
         150      5.77393      0.99986   0.00125067 -9.66548e-05 
         150        5.833      0.99986   0.00125071 -9.65592e-05 
         150      5.89237     0.999861   0.00125074 -9.64636e-05 
         150      5.95204     0.999861   0.00125079 -9.63682e-05 
         150      6.01201     0.999861   0.00125083 -9.62734e-05 
         150      6.07228     0.999862   0.00125087 -9.61795e-05 
         150      6.13285     0.999862    0.0012509 -9.60864e-05 
         150      6.19372     0.999862   0.00125092 -9.59931e-05 
         150      6.25489     0.999862   0.00125094 -9.58974e-05 
         150      6.31636     0.999862   0.00125098 -9.57961e-05 
         150      6.37814     0.999862   0.00125101  -9.5701e-05 
         150      6.44021     0.999863   0.00125103 -9.55984e-05 
         150      6.50258     0.999863   0.00125107 -9.54935e-05 
         150      6.56526     0.999863   0.00125111  -9.5389e-05 
         150      6.62824     0.999863   0.00125116  -9.5286e-05 
         150      6.69151     0.999863    0.0012512 -9.51843e-05 
         150      6.75509     0.999863   0.00125123 -9.50834e-05 
         150      6.81897     0.999863   0.00125125 -9.49822e-05 
         150      6.88314     0.999864   0.00125127 -9.48798e-05 
         150      6.94762     0.999864    0.0012513 -9.47758e-05 
         150       7.0124     0.999864   0.00125133 -9.46699e-05 
         150      7.07748     0.999864   0.00125137 -9.45625e-05 
         150      7.14286     0.999864   0.00125142 -9.44545e-05 
         150      7.20854     0.999864   0.00125147 -9.43469e-05 
         150      7.27453     0.999864   0.00125152 -9.42414e-05 
         150      7.34081     0.999864   0.00125156 -9.41397e-05 
         150      7.40739     0.999865   0.00125157 -9.40434e-05 
         150      7.47428     0.999865   0.00125159 -9.39416e-05 
         150      7.54146     0.999865    0.0012516 -9.38277e-05 
         150      7.60895     0.999865   0.00125162 -9.37126e-05 
         150      7.67673     0.999865   0.00125165  -9.3595e-05 
         150      7.74482     0.999865    0.0012517 -9.34734e-05 
         150       7.8132     0.999865    0.0012518 -9.33455e-05 
         150      7.88189     0.999865   0.00125188 -9.32079e-05 
         150      7.95088     0.999866   0.00125183 -9.30587e-05 
         150      8.02017     0.999866    0.0012519 -9.29918e-05 
         150      8.08976     0.999866   0.00125194 -9.29141e-05 
         150      8.15964     0.999866   0.00125195 -9.28307e-05 
         150      8.22983     0.999866   0.00125199  -9.2723e-05 
         150      8.30033     0.999866   0.00125204 -9.25943e-05 
         150      8.37112     0.999866   0.00125205 -9.24747e-05 
         150      8.44221     0.999867   0.00125206 -9.23603e-05 
         150       8.5136     0.999867   0.00125209 -9.22481e-05 
         150      8.58529     0.999867   0.00125213  -9.2136e-05 
         150      8.65729     0.999867   0.00125217 -9.20229e-05 
         150      8.72958     0.999867   0.00125222  -9.1908e-05 
         150      8.80218     0.999867   0.00125227 -9.17913e-05 
         150      8.87507     0.999867   0.00125232 -9.16727e-05 
         150      8.94827     0.999868   0.00125235 -9.15525e-05 
         150      9.02177     0.999868   0.00125238  -9.1431e-05 
         150      9.09556     0.999868   0.00125241 -9.13087e-05 
         150      9.16966     0.999868   0.00125243 -9.11858e-05 
         150      9.24406     0.999868   0.00125246 -9.10627e-05 
         150      9.31876     0.999868    0.0012525 -9.09395e-05 
         150      9.39376     0.999868   0.00125253 -9.08165e-05 
         150      9.46906     0.999869   0.00125258 -9.06935e-05 
         150      9.54466     0.999869   0.00125262 -9.05708e-05 
         150      9.62056     0.999869   0.00125267 -9.04481e-05 
         150      9.69676     0.999869   0.00125271 -9.03253e-05 
         150      9.77327     0.999869   0.00125275 -9.02025e-05 
         150      9.85007     0.999869   0.00125278 -9.00795e-05 
         150      9.92717     0.999869   0.00125281 -8.99561e-05 
         150      10.0046      0.99987   0.00125283 -8.98322e-05 
         150      10.0823      0.99987   0.00125286 -8.97075e-05 
         150      10.1603      0.99987    0.0012529 -8.95817e-05 
         150      10.2386      0.99987   0.00125295 -8.94539e-05 
         150      10.3172      0.99987     0.001253  -8.9323e-05 
         150      10.3961      0.99987   0.00125304 -8.91898e-05 
         150      10.4753     0.999871   0.00125307 -8.90662e-05 
         150      10.5548     0.999871   0.00125308  -8.8944e-05 
         150      10.6346     0.999871   0.00125311   -8.882e-05 
         150      10.7147     0.999871   0.00125315 -8.86927e-05 
         150      10.7952     0.999871   0.00125321 -8.85623e-05 
         150      10.8759     0.999871   0.00125327 -8.84304e-05 
         150      10.9569     0.999872   0.00125333 -8.82997e-05 
         150      11.0382     0.999872   0.00125339 -8.81743e-05 
         150      11.1198     0.999872   0.00125343 -8.80339e-05 
         150      11.2017     0.999872   0.00125346   -8.788e-05 
         150      11.2839     0.999872   0.00125348  -8.7735e-05 
         150      11.3664     0.999872   0.00125349 -8.75984e-05 
         150      11.4493     0.999873   0.00125351 -8.74684e-05 
         150      11.5324     0.999873   0.00125354 -8.73426e-05 
         150      11.6158     0.999873   0.00125359 -8.72181e-05 
         150      11.6995     0.999873   0.00125365 -8.70924e-05 
         150      11.7835     0.999873   0.00125371 -8.69632e-05 
         150      11.8679     0.999873   0.00125375 -8.68293e-05 
         150      11.9525     0.999874   0.00125378 -8.66905e-05 
         150      12.0374     0.999874    0.0012538 -8.65477e-05 
         150      12.1226     0.999874   0.00125383 -8.64022e-05 
         150      12.2081     0.999874   0.00125388 -8.62556e-05 
         150       12.294     0.999874   0.00125396 -8.61081e-05 
         150      12.3801     0.999874   0.00125399 -8.59568e-05 
         150      12.4665     0.999875   0.00125406 -8.58201e-05 
         150      12.5532     0.999875   0.00125413 -8.56928e-05 
         150      12.6402     0.999875   0.00125415 -8.55627e-05 
         150      12.7276     0.999875   0.00125416 -8.54282e-05 
         150      12.8152     0.999875   0.00125417 -8.52888e-05 
         150      12.9031     0.999875    0.0012542  -8.5145e-05 
         150      12.9913     0.999876   0.00125424 -8.49977e-05 
         150      13.0799     0.999876   0.00125428  -8.4848e-05 
         150      13.1687     0.999876   0.00125433 -8.46975e-05 
         150      13.2578     0.999876   0.00125437 -8.45472e-05 
         150      13.3473     0.999876   0.00125442 -8.43982e-05 
         150       13.437     0.999876   0.00125446 -8.42505e-05 
         150       13.527     0.999877    0.0012545 -8.41033e-05 
         150      13.6173     0.999877   0.00125452 -8.39545e-05 
         150       13.708     0.999877   0.00125452 -8.38003e-05 
         150      13.7989     0.999877   0.00125457 -8.36493e-05 
         150      13.8901     0.999877   0.00125463 -8.34989e-05 
         150      13.9817     0.999877   0.00125469 -8.33467e-05 
         150      14.0735     0.999878   0.00125475 -8.31934e-05 
         150      14.1656     0.999878    0.0012548 -8.30397e-05 
         150      14.2581     0.999878   0.00125484  -8.2886e-05 
         150      14.3508     0.999878   0.00125487 -8.27329e-05 
         150      14.4438     0.999878   0.00125488 -8.25803e-05 
         150      14.5372     0.999878   0.00125488  -8.2428e-05 
         150      14.6308     0.999878    0.0012549 -8.22751e-05 
         150      14.7248     0.999879   0.00125495 -8.21199e-05 
         150       14.819     0.999879   0.00125502 -8.19599e-05 
         150      14.9135     0.999879   0.00125507 -8.17987e-05 
         150      15.0084      0.99988   0.00125511 -8.16492e-05 
         150      15.1035      0.99988   0.00125515 -8.14989e-05 
         150       15.199      0.99988    0.0012552 -8.13469e-05 
         150      15.2947      0.99988   0.00125525  -8.1193e-05 
         150      15.3907      0.99988    0.0012553  -8.1037e-05 
         150      15.4871      0.99988   0.00125535 -8.08792e-05 
         150      15.5837     0.999881   0.00125539 -8.07198e-05 
         150      15.6807     0.999881   0.00125542 -8.05591e-05 
         150      15.7779     0.999881   0.00125545 -8.03975e-05 
         150      15.8755     0.999881   0.00125548 -8.02352e-05 
         150      15.9733     0.999881   0.00125551 -8.00724e-05 
         150      16.0714     0.999881   0.00125554 -7.99092e-05 
         150      16.1699     0.999882   0.00125558 -7.97457e-05 
         150      16.2686     0.999882   0.00125563 -7.95817e-05 
         150      16.3677     0.999882   0.00125568 -7.94173e-05 
         150       16.467     0.999882   0.00125572 -7.92525e-05 
         150      16.5667     0.999883   0.00125577 -7.90872e-05 
         150      16.6666     0.999883   0.00125581 -7.89213e-05 
         150      16.7669     0.999883   0.00125585  -7.8755e-05 
         150      16.8674     0.999883   0.00125588 -7.85881e-05 
         150      16.9683     0.999883    0.0012559 -7.84205e-05 
         150      17.0694     0.999883   0.00125593 -7.82521e-05 
         150      17.1709     0.999884   0.00125598 -7.80824e-05 
         150      17.2726     0.999884   0.00125604 -7.79102e-05 
         150      17.3747     0.999884   0.00125611 -7.77341e-05 
         150      17.4771     0.999885   0.00125619 -7.75513e-05 
         150      17.5797     0.999885   0.00125623  -7.7358e-05 
         150      17.6827     0.999885   0.00125625 -7.71871e-05 
         150      17.7859     0.999885   0.00125628 -7.70203e-05 
         150      17.8895     0.999885   0.00125634 -7.68489e-05 
         150      17.9933     0.999886   0.00125641 -7.66985e-05 
         150      18.0975     0.999886   0.00125644 -7.65372e-05 
         150      18.2019     0.999886   0.00125645 -7.63685e-05 
         150      18.3067     0.999886   0.00125645 -7.61949e-05 
         150      18.4118     0.999886   0.00125646 -7.60185e-05 
         150      18.5171     0.999886   0.00125648 -7.58408e-05 
         150      18.6228     0.999886   0.00125651 -7.56626e-05 
         150      18.7288     0.999887   0.00125656 -7.54848e-05 
         150       18.835     0.999887   0.00125661 -7.53076e-05 
         150      18.9416     0.999887   0.00125666 -7.51311e-05 
         150      19.0484     0.999888   0.00125672 -7.49552e-05 
         150      19.1556     0.999888   0.00125678 -7.47797e-05 
         150      19.2631     0.999888   0.00125683 -7.46044e-05 
         150      19.3708     0.999888   0.00125687  -7.4429e-05 
         150      19.4789     0.999888   0.00125691 -7.42532e-05 
         150      19.5873     0.999889   0.00125695 -7.40768e-05 
         150      19.6959     0.999889   0.00125698 -7.38994e-05 
         150      19.8049     0.999889   0.00125701  -7.3721e-05 
         150      19.9142     0.999889   0.00125704 -7.35415e-05 
         150      20.0237     0.999889   0.00125706 -7.33607e-05 
         150      20.1336     0.999889    0.0012571 -7.31788e-05 
         150      20.2438      0.99989   0.00125713 -7.29958e-05 
         150      20.3542      0.99989   0.00125717 -7.28118e-05 
         150       20.465      0.99989   0.00125721  -7.2627e-05 
         150      20.5761      0.99989   0.00125725 -7.24415e-05 
         150      20.6875     0.999891    0.0012573 -7.22556e-05 
         150      20.7991     0.999891   0.00125735 -7.20692e-05 
         150      20.9111     0.999891    0.0012574 -7.18826e-05 
         150      21.0234     0.999891   0.00125744 -7.16958e-05 
         150       21.136     0.999891   0.00125748 -7.15086e-05 
         150      21.2488     0.999892   0.00125752 -7.13209e-05 
         150       21.362     0.999892   0.00125755 -7.11324e-05 
         150      21.4755     0.999892   0.00125757 -7.09428e-05 
         150      21.5893     0.999892    0.0012576 -7.07516e-05 
         150      21.7033     0.999892   0.00125762 -7.05581e-05 
         150      21.8177     0.999892   0.00125765 -7.03616e-05 
         150      21.9324     0.999892   0.00125768 -7.01615e-05 
         150      22.0474     0.999893   0.00125772  -6.9957e-05 
         150      22.1627     0.999893   0.00125776 -6.97483e-05 
         150      22.2782     0.999894    0.0012578 -6.95423e-05 
         150      22.3941     0.999894   0.00125784 -6.93341e-05 
         150      22.5103     0.999895   0.00125784  -6.9125e-05 
         150      22.6268     0.999894   0.00125775 -6.89171e-05 
         150      22.7436     0.999891   0.00125753 -6.86991e-05 
         150      22.8607     0.999894   0.00125765 -6.85637e-05 
         150       22.978     0.999895   0.00125782 -6.84703e-05 
         150      23.0957     0.999896   0.00125795 -6.83457e-05 
         150      23.2137     0.999897   0.00125806 -6.81952e-05 
         150       23.332     0.999897   0.00125815 -6.80232e-05 
         150      23.4506     0.999897   0.00125824 -6.78168e-05 
         150      23.5695     0.999897    0.0012583 -6.75976e-05 
         150      23.6887     0.999896   0.00125834 -6.73714e-05 
         150      23.8081     0.999896   0.00125837  -6.7142e-05 
         150      23.9279     0.999896    0.0012584 -6.69123e-05 
         150       24.048     0.999897   0.00125842 -6.66843e-05 
         150      24.1684     0.999897   0.00125844 -6.64593e-05 
         150      24.2891     0.999897   0.00125846 -6.62382e-05 
         150      24.4101     0.999898   0.00125848 -6.60212e-05 
         150      24.5314     0.999898   0.00125851 -6.58083e-05 
         150       24.653     0.999898   0.00125854 -6.55993e-05 
         150      24.7749     0.999899   0.00125858 -6.53936e-05 
         150      24.8971     0.999899   0.00125862 -6.51906e-05 
         150      25.0196     0.999899   0.00125866 -6.49896e-05 
         150      25.1424     0.999899    0.0012587   -6.479e-05 
         150      25.2655       0.9999   0.00125875 -6.45911e-05 
         150      25.3889       0.9999    0.0012588 -6.43922e-05 
         150      25.5125       0.9999   0.00125884 -6.41928e-05 
         150      25.6365       0.9999   0.00125889 -6.39926e-05 
         150      25.7608       0.9999   0.00125893 -6.37911e-05 
         150      25.8854       0.9999   0.00125897 -6.35882e-05 
         150      26.0103     0.999901   0.00125901 -6.33838e-05 
         150      26.1355     0.999901   0.00125905 -6.31778e-05 
         150       26.261     0.999901   0.00125908 -6.29705e-05 
         150      26.3868     0.999901   0.00125911 -6.27619e-05 
         150      26.5129     0.999902   0.00125914 -6.25522e-05 
         150      26.6393     0.999902   0.00125917 -6.23417e-05 
         150      26.7661     0.999902    0.0012592 -6.21306e-05 
         150      26.8931     0.999903   0.00125923  -6.1919e-05 
         150      27.0204     0.999903   0.00125926 -6.17072e-05 
         150       27.148     0.999903   0.00125929 -6.14952e-05 
         150      27.2759     0.999904   0.00125932  -6.1283e-05 
         150      27.4041     0.999904   0.00125935 -6.10703e-05 
         150      27.5326     0.999904   0.00125939 -6.08569e-05 
         150      27.6614     0.999904   0.00125942 -6.06424e-05 
         150      27.7905     0.999904   0.00125945 -6.04262e-05 
         150      27.9199     0.999905   0.00125948 -6.02075e-05 
         150      28.0496     0.999905   0.00125951 -5.99857e-05 
         150      28.1796     0.999905   0.00125953 -5.97598e-05 
         150      28.3099     0.999905   0.00125956  -5.9529e-05 
         150      28.4405     0.999905   0.00125959 -5.92924e-05 
         150      28.5715     0.999906   0.00125962 -5.90493e-05 
         150      28.7027     0.999906   0.00125967 -5.87994e-05 
         150      28.8342     0.999906   0.00125974 -5.85425e-05 
         150       28.966     0.999906   0.00125985 -5.82791e-05 
         150      29.0981     0.999906   0.00126003 -5.80105e-05 
         150      29.2305     0.999906   0.00126012 -5.77458e-05 
         150      29.3632     0.999907   0.00125988 -5.75335e-05 
         150      29.4963     0.999908   0.00125972 -5.73738e-05 
         150      29.6296     0.999908   0.00125958 -5.72633e-05 
         150      29.7632     0.999908   0.00125964 -5.71084e-05 
         150      29.8971     0.999909   0.00125996 -5.67954e-05 
         150      30.0313     0.999909   0.00126012 -5.65145e-05 
         150      30.1658     0.999909   0.00126017 -5.62571e-05 
         150      30.3007     0.999909   0.00126018 -5.60163e-05 
         150      30.4358      0.99991   0.00126016 -5.57865e-05 
         150      30.5712      0.99991   0.00126014 -5.55634e-05 
         150      30.7069      0.99991   0.00126013 -5.53437e-05 