Variables = x, y, u, v, p

Zone, I=800, F=POINT
         350            0            0            0 -5.14447e-05 
         350     0.000234  9.36758e-05  7.98863e-12 -5.14446e-05 
         350     0.000939  0.000375904  1.28653e-10 -5.14444e-05 
         350     0.002113  0.000845885  6.51471e-10 -5.14441e-05 
         350     0.003759   0.00150482  2.06179e-09 -5.14436e-05 
         350     0.005872    0.0023507  5.03121e-09  -5.1443e-05 
         350     0.008457   0.00338554   1.0436e-08 -5.14422e-05 
         350      0.01151   0.00460774  1.93309e-08 -5.14413e-05 
         350     0.015036   0.00601929  3.29888e-08 -5.14403e-05 
         350     0.019031   0.00761859  5.28477e-08 -5.14391e-05 
         350     0.023493   0.00940484  8.05344e-08 -5.14378e-05 
         350     0.028429    0.0113809  1.17931e-07 -5.14364e-05 
         350     0.033831    0.0135434  1.67008e-07 -5.14348e-05 
         350     0.039706    0.0158954  2.30049e-07 -5.14331e-05 
         350     0.046047    0.0184338  3.09395e-07 -5.14313e-05 
         350     0.052863    0.0211625   4.0777e-07 -5.14293e-05 
         350      0.06015    0.0240796   5.2794e-07 -5.14271e-05 
         350       0.0679    0.0271822  6.72751e-07 -5.14249e-05 
         350     0.076126    0.0304753  8.45634e-07 -5.14225e-05 
         350     0.084816    0.0339541  1.04972e-06 -5.14199e-05 
         350     0.093982    0.0376234  1.28887e-06 -5.14173e-05 
         350     0.103611    0.0414781   1.5665e-06 -5.14145e-05 
         350     0.113718     0.045524  1.88702e-06 -5.14115e-05 
         350     0.124286    0.0497545  2.25404e-06 -5.14084e-05 
         350     0.135333    0.0541766  2.67254e-06 -5.14052e-05 
         350      0.14685    0.0587867  3.14675e-06 -5.14018e-05 
         350     0.158827    0.0635807  3.68094e-06 -5.13983e-05 
         350     0.171284    0.0685667  4.28094e-06 -5.13947e-05 
         350     0.184201    0.0737366  4.95089e-06 -5.13909e-05 
         350     0.197599    0.0790986  5.69718e-06  -5.1387e-05 
         350     0.211455    0.0846436  6.52402e-06  -5.1383e-05 
         350     0.225792    0.0903805  7.43847e-06 -5.13788e-05 
         350       0.2406    0.0963053  8.44581e-06 -5.13744e-05 
         350     0.255865     0.102412  9.55107e-06   -5.137e-05 
         350     0.271613     0.108711  1.07624e-05 -5.13654e-05 
         350     0.287818     0.115192  1.20841e-05 -5.13606e-05 
         350     0.304506     0.121865  1.35251e-05 -5.13557e-05 
         350      0.32165     0.128719  1.50896e-05 -5.13507e-05 
         350     0.339278     0.135764  1.67871e-05 -5.13456e-05 
         350     0.357377     0.142995  1.86238e-05 -5.13402e-05 
         350      0.37593     0.150405  2.06049e-05 -5.13348e-05 
         350     0.394968     0.158007  2.27412e-05 -5.13292e-05 
         350     0.414461     0.165786   2.5037e-05 -5.13235e-05 
         350      0.43444     0.173755  2.75035e-05 -5.13176e-05 
         350     0.454872     0.181901  3.01446e-05 -5.13116e-05 
         350     0.475791     0.190236  3.29727e-05 -5.13054e-05 
         350     0.497163     0.198745  3.59912e-05 -5.12991e-05 
         350     0.519021     0.207441  3.92132e-05 -5.12926e-05 
         350      0.54135     0.216316  4.26447e-05  -5.1286e-05 
         350     0.564131     0.225363  4.62912e-05 -5.12792e-05 
         350       0.5874     0.234594  5.01668e-05 -5.12723e-05 
         350     0.611121     0.243993  5.42742e-05 -5.12652e-05 
         350      0.63533     0.253573   5.8628e-05  -5.1258e-05 
         350      0.65999     0.263317  6.32302e-05 -5.12506e-05 
         350     0.685139     0.273239  6.80966e-05  -5.1243e-05 
         350     0.710759     0.283329  7.32324e-05 -5.12353e-05 
         350     0.736828     0.293577  7.86416e-05 -5.12274e-05 
         350     0.763387     0.303996  8.43409e-05 -5.12193e-05 
         350     0.790396     0.314567  9.03302e-05  -5.1211e-05 
         350     0.817896     0.325304  9.66268e-05 -5.12026e-05 
         350     0.845843     0.336186  0.000103228 -5.11939e-05 
         350     0.874283     0.347227  0.000110154 -5.11851e-05 
         350      0.90317     0.358407  0.000117399 -5.11761e-05 
         350     0.932551     0.369738  0.000124984 -5.11669e-05 
         350     0.962401     0.381208  0.000132909 -5.11574e-05 
         350     0.992697     0.392801  0.000141174 -5.11478e-05 
         350      1.02349     0.404533  0.000149799 -5.11379e-05 
         350      1.05472     0.416379  0.000158775 -5.11277e-05 
         350      1.08645     0.428351  0.000168123 -5.11174e-05 
         350      1.11863     0.440425   0.00017783 -5.11068e-05 
         350       1.1513     0.452613  0.000187918 -5.10959e-05 
         350      1.18444     0.464898  0.000198381 -5.10847e-05 
         350      1.21802     0.477264  0.000209213 -5.10733e-05 
         350      1.25211     0.489723  0.000220433 -5.10616e-05 
         350      1.28663     0.502245  0.000232023 -5.10495e-05 
         350      1.32165     0.514843  0.000244003 -5.10372e-05 
         350      1.35712     0.527487  0.000256351 -5.10245e-05 
         350      1.39308     0.540187  0.000269084 -5.10114e-05 
         350      1.42951     0.552924  0.000282191  -5.0998e-05 
         350      1.46638     0.565678  0.000295655 -5.09843e-05 
         350      1.50375     0.578456   0.00030949 -5.09702e-05 
         350      1.54156     0.591229  0.000323667  -5.0956e-05 
         350      1.57987     0.604003  0.000338201 -5.09411e-05 
         350      1.61863     0.616748   0.00035306 -5.09256e-05 
         350      1.65788      0.62947  0.000368254 -5.09096e-05 
         350      1.69757     0.642137  0.000383744 -5.08931e-05 
         350      1.73776     0.654755  0.000399542 -5.08762e-05 
         350      1.77842     0.667301  0.000415618 -5.08587e-05 
         350      1.81952     0.679751  0.000431941 -5.08408e-05 
         350      1.86113     0.692112  0.000448518 -5.08225e-05 
         350      1.90316     0.704349  0.000465301 -5.08036e-05 
         350      1.94571     0.716468  0.000482294 -5.07842e-05 
         350      1.98869     0.728435  0.000499446 -5.07643e-05 
         350      2.03217     0.740255  0.000516759 -5.07438e-05 
         350      2.07612     0.751904  0.000534192 -5.07226e-05 
         350      2.12051      0.76336  0.000551704 -5.07008e-05 
         350       2.1654     0.774626  0.000569291 -5.06784e-05 
         350      2.21073     0.785671  0.000586895 -5.06552e-05 
         350      2.25656     0.796499  0.000604514 -5.06313e-05 
         350      2.30283     0.807082  0.000622085 -5.06067e-05 
         350       2.3496     0.817422  0.000639604 -5.05812e-05 
         350      2.39685     0.827501  0.000657024 -5.05551e-05 
         350      2.44452     0.837299  0.000674296 -5.05281e-05 
         350      2.49271     0.846821  0.000691414 -5.05004e-05 
         350      2.54132     0.856044  0.000708316  -5.0472e-05 
         350      2.59044     0.864973  0.000724998 -5.04428e-05 
         350         2.64     0.873587  0.000741398  -5.0413e-05 
         350      2.69006     0.881893  0.000757512 -5.03824e-05 
         350      2.74056     0.889872  0.000773282 -5.03511e-05 
         350      2.79156     0.897532  0.000788705 -5.03192e-05 
         350      2.84304     0.904863  0.000803739 -5.02865e-05 
         350      2.89494     0.911858  0.000818348 -5.02533e-05 
         350      2.94735     0.918528  0.000832529 -5.02193e-05 
         350       3.0002     0.924861  0.000846239 -5.01846e-05 
         350      3.05355      0.93087  0.000859479 -5.01492e-05 
         350      3.10733     0.936547   0.00087221 -5.01131e-05 
         350      3.16163     0.941905  0.000884438 -5.00761e-05 
         350      3.21639     0.946945  0.000896139 -5.00383e-05 
         350      3.27158     0.951669  0.000907295 -4.99997e-05 
         350      3.32729     0.956091  0.000917916 -4.99603e-05 
         350      3.38342     0.960212  0.000927981 -4.99201e-05 
         350      3.44007     0.964048  0.000937505 -4.98792e-05 
         350      3.49714     0.967602  0.000946474 -4.98379e-05 
         350      3.55472     0.970889  0.000954908 -4.97963e-05 
         350      3.61273     0.973916  0.000962803 -4.97551e-05 
         350      3.67125     0.976698  0.000970185 -4.97149e-05 
         350      3.73025     0.979246  0.000977065 -4.96765e-05 
         350      3.78967     0.981569  0.000983419 -4.96351e-05 
         350      3.84961     0.983683  0.000989288 -4.95904e-05 
         350      3.90996     0.985598  0.000994697 -4.95448e-05 
         350      3.97084     0.987328   0.00099967 -4.94981e-05 
         350      4.03214     0.988884   0.00100421 -4.94504e-05 
         350      4.09395     0.990281   0.00100835 -4.94018e-05 
         350      4.15624     0.991529   0.00101211 -4.93524e-05 
         350      4.21895     0.992638   0.00101549 -4.93025e-05 
         350      4.28217     0.993622   0.00101854 -4.92521e-05 
         350      4.34582     0.994491   0.00102127 -4.92015e-05 
         350      4.40998     0.995256    0.0010237 -4.91508e-05 
         350      4.47457     0.995925   0.00102587 -4.91003e-05 
         350      4.53968      0.99651   0.00102778 -4.90499e-05 
         350      4.60525     0.997018   0.00102948 -4.89997e-05 
         350      4.67125     0.997457   0.00103097 -4.89499e-05 
         350      4.73777     0.997835   0.00103228 -4.89001e-05 
         350       4.8047      0.99816   0.00103342 -4.88505e-05 
         350      4.87216     0.998437   0.00103441 -4.88007e-05 
         350      4.94003     0.998673   0.00103527 -4.87506e-05 
         350      5.00843     0.998872     0.001036 -4.86999e-05 
         350      5.07724      0.99904   0.00103662 -4.86483e-05 
         350      5.14658     0.999181   0.00103715 -4.85957e-05 
         350      5.21639     0.999299   0.00103759 -4.85419e-05 
         350      5.28661     0.999397   0.00103796 -4.84869e-05 
         350      5.35736     0.999477   0.00103827 -4.84308e-05 
         350      5.42852     0.999544   0.00103853 -4.83742e-05 
         350      5.50021     0.999598   0.00103875 -4.83178e-05 
         350      5.57231     0.999642   0.00103894  -4.8263e-05 
         350      5.64493     0.999678   0.00103911 -4.82116e-05 
         350      5.71803     0.999707   0.00103925 -4.81636e-05 
         350      5.79154      0.99973   0.00103941 -4.81091e-05 
         350      5.86558     0.999749   0.00103951 -4.80506e-05 
         350      5.94003     0.999763   0.00103952 -4.79871e-05 
         350      6.01501     0.999775    0.0010396 -4.79211e-05 
         350       6.0904     0.999784   0.00103969  -4.7862e-05 
         350      6.16632     0.999791   0.00103971 -4.78054e-05 
         350      6.24271     0.999797    0.0010397 -4.77474e-05 
         350       6.3195     0.999801   0.00103973 -4.76894e-05 
         350      6.39683     0.999805   0.00103973 -4.76312e-05 
         350      6.47457     0.999807   0.00103973 -4.75722e-05 
         350      6.55284     0.999809   0.00103974 -4.75123e-05 
         350      6.63152     0.999811   0.00103975 -4.74515e-05 
         350      6.71073     0.999812   0.00103977 -4.73898e-05 
         350      6.79034     0.999813    0.0010398 -4.73276e-05 
         350      6.87049     0.999814   0.00103982  -4.7265e-05 
         350      6.95111     0.999814   0.00103984 -4.72022e-05 
         350      7.03214     0.999815   0.00103986 -4.71394e-05 
         350       7.1137     0.999815   0.00103987 -4.70765e-05 
         350      7.19566     0.999816   0.00103988 -4.70137e-05 
         350      7.27816     0.999816   0.00103989 -4.69507e-05 
         350      7.36106     0.999817    0.0010399 -4.68876e-05 
         350      7.44451     0.999817    0.0010399 -4.68239e-05 
         350      7.52842     0.999817   0.00103991 -4.67597e-05 
         350      7.61273     0.999817   0.00103992 -4.66949e-05 
         350      7.69758     0.999818   0.00103993 -4.66292e-05 
         350      7.78283     0.999818   0.00103994 -4.65629e-05 
         350      7.86862     0.999818   0.00103996 -4.64958e-05 
         350      7.95481     0.999818   0.00103997 -4.64283e-05 
         350      8.04155     0.999819   0.00103997 -4.63605e-05 
         350      8.12868     0.999819   0.00103998 -4.62929e-05 
         350      8.21635     0.999819   0.00103998 -4.62257e-05 
         350      8.30449     0.999819   0.00103998  -4.6159e-05 
         350      8.39303     0.999819   0.00103998 -4.60927e-05 
         350      8.48211      0.99982   0.00103999 -4.60259e-05 
         350      8.57159      0.99982   0.00104001 -4.59572e-05 
         350      8.66161      0.99982   0.00104003 -4.58835e-05 
         350      8.75203     0.999821   0.00104003 -4.58192e-05 
         350      8.84299     0.999821   0.00104004 -4.57521e-05 
         350      8.93443     0.999821   0.00104005 -4.56832e-05 
         350      9.02626     0.999821   0.00104006 -4.56137e-05 
         350      9.11863     0.999822   0.00104008 -4.55445e-05 
         350      9.21139     0.999822    0.0010401 -4.54757e-05 
         350      9.30471     0.999822   0.00104011 -4.54072e-05 
         350      9.39841     0.999822   0.00104013 -4.53386e-05 
         350      9.49267     0.999823   0.00104014 -4.52694e-05 
         350      9.58739     0.999823   0.00104014  -4.5199e-05 
         350      9.68251     0.999823   0.00104015  -4.5127e-05 
         350      9.77817     0.999824   0.00104016  -4.5053e-05 
         350      9.87422     0.999824   0.00104016  -4.4977e-05 
         350      9.97083     0.999824   0.00104017 -4.48987e-05 
         350      10.0678     0.999824   0.00104018 -4.48188e-05 
         350      10.1654     0.999825   0.00104019 -4.47376e-05 
         350      10.2633     0.999825    0.0010402 -4.46559e-05 
         350      10.3618     0.999825   0.00104021 -4.45743e-05 
         350      10.4607     0.999825   0.00104023 -4.44939e-05 
         350      10.5601     0.999826   0.00104024 -4.44154e-05 
         350        10.66     0.999826   0.00104026  -4.4339e-05 
         350      10.7603     0.999826   0.00104028  -4.4265e-05 
         350      10.8611     0.999827   0.00104029 -4.41924e-05 
         350      10.9623     0.999827   0.00104031 -4.41195e-05 
         350      11.0641     0.999827   0.00104032 -4.40433e-05 
         350      11.1663     0.999827   0.00104033 -4.39589e-05 
         350       11.269     0.999828   0.00104032 -4.38596e-05 
         350      11.3721     0.999828   0.00104032 -4.37798e-05 
         350      11.4757     0.999828   0.00104036  -4.3738e-05 
         350      11.5798     0.999829   0.00104037 -4.36858e-05 
         350      11.6844     0.999829   0.00104038 -4.36267e-05 
         350      11.7894     0.999829   0.00104039 -4.35638e-05 
         350       11.895      0.99983    0.0010404 -4.34935e-05 
         350      12.0009      0.99983   0.00104038 -4.33998e-05 
         350      12.1073      0.99983   0.00104039 -4.32712e-05 
         350      12.2142      0.99983   0.00104047 -4.30924e-05 
         350      12.3216      0.99983   0.00104051 -4.29644e-05 
         350      12.4294     0.999831    0.0010404 -4.29878e-05 
         350      12.5378     0.999831   0.00104037  -4.2958e-05 
         350      12.6465     0.999832   0.00104039 -4.28913e-05 
         350      12.7558     0.999832   0.00104044  -4.2801e-05 
         350      12.8656     0.999832    0.0010405 -4.26975e-05 
         350      12.9757     0.999833   0.00104054 -4.25887e-05 
         350      13.0864     0.999833   0.00104056   -4.248e-05 
         350      13.1975     0.999833   0.00104057 -4.23754e-05 
         350      13.3092     0.999833   0.00104057 -4.22766e-05 
         350      13.4212     0.999834   0.00104057 -4.21844e-05 
         350      13.5338     0.999834   0.00104056 -4.20985e-05 
         350      13.6468     0.999834   0.00104056 -4.20177e-05 
         350      13.7603     0.999835   0.00104057 -4.19406e-05 
         350      13.8743     0.999835   0.00104058 -4.18651e-05 
         350      13.9886     0.999835    0.0010406 -4.17896e-05 
         350      14.1036     0.999836   0.00104062 -4.17123e-05 
         350      14.2189     0.999836   0.00104063  -4.1632e-05 
         350      14.3348     0.999836   0.00104063 -4.15477e-05 
         350       14.451     0.999837   0.00104063 -4.14593e-05 
         350      14.5678     0.999837   0.00104063 -4.13671e-05 
         350      14.6851     0.999837   0.00104063  -4.1272e-05 
         350      14.8028     0.999838   0.00104065 -4.11753e-05 
         350       14.921     0.999838   0.00104068 -4.10785e-05 
         350      15.0396     0.999838   0.00104069 -4.09834e-05 
         350      15.1588     0.999839   0.00104065 -4.08884e-05 
         350      15.2783     0.999839   0.00104072 -4.07799e-05 
         350      15.3984     0.999839   0.00104077 -4.06793e-05 
         350       15.519      0.99984    0.0010408 -4.05853e-05 
         350        15.64      0.99984    0.0010408 -4.04963e-05 
         350      15.7615      0.99984   0.00104077   -4.041e-05 
         350      15.8834     0.999841   0.00104073 -4.03237e-05 
         350      16.0058     0.999841   0.00104074 -4.02341e-05 
         350      16.1286     0.999841   0.00104084  -4.0139e-05 
         350       16.252     0.999842   0.00104092 -4.00383e-05 
         350      16.3759     0.999842   0.00104085 -3.99368e-05 
         350      16.5002     0.999843   0.00104095 -3.98387e-05 
         350       16.625     0.999843   0.00104095 -3.97427e-05 
         350      16.7501     0.999843   0.00104091 -3.96478e-05 
         350      16.8759     0.999844   0.00104088 -3.95529e-05 
         350       17.002     0.999844   0.00104085 -3.94575e-05 
         350      17.1287     0.999844   0.00104085 -3.93608e-05 
         350      17.2557     0.999845   0.00104087 -3.92626e-05 
         350      17.3834     0.999845   0.00104089 -3.91623e-05 
         350      17.5115     0.999845   0.00104092   -3.906e-05 
         350      17.6399     0.999846   0.00104095 -3.89558e-05 
         350       17.769     0.999846   0.00104098 -3.88496e-05 
         350      17.8984     0.999846     0.001041 -3.87421e-05 
         350      18.0284     0.999847   0.00104102 -3.86337e-05 
         350      18.1587     0.999847   0.00104103 -3.85254e-05 
         350      18.2896     0.999848   0.00104104 -3.84184e-05 
         350       18.421     0.999848   0.00104105 -3.83144e-05 
         350      18.5528     0.999848   0.00104106 -3.82159e-05 
         350      18.6851     0.999849   0.00104106 -3.81257e-05 
         350      18.8178     0.999849   0.00104106 -3.80477e-05 
         350      18.9511      0.99985   0.00104103 -3.79869e-05 
         350      19.0847      0.99985     0.001041 -3.79376e-05 
         350      19.2189      0.99985   0.00104111 -3.77709e-05 
         350      19.3535     0.999851   0.00104119 -3.76261e-05 
         350      19.4886     0.999851   0.00104124 -3.74985e-05 
         350      19.6242     0.999851   0.00104127 -3.73842e-05 
         350      19.7602     0.999852   0.00104129 -3.72796e-05 
         350      19.8968     0.999852   0.00104129  -3.7181e-05 
         350      20.0337     0.999853   0.00104129 -3.70858e-05 
         350      20.1712     0.999853   0.00104127 -3.69914e-05 
         350      20.3091     0.999853   0.00104125 -3.68961e-05 
         350      20.4475     0.999854   0.00104123 -3.67985e-05 
         350      20.5864     0.999854   0.00104122 -3.66982e-05 
         350      20.7257     0.999855   0.00104121 -3.65953e-05 
         350      20.8655     0.999855   0.00104121 -3.64906e-05 
         350      21.0058     0.999855   0.00104122 -3.63863e-05 
         350      21.1465     0.999855   0.00104124  -3.6285e-05 
         350      21.2877     0.999856   0.00104127 -3.61711e-05 
         350      21.4294     0.999856   0.00104133 -3.60544e-05 
         350      21.5716     0.999857   0.00104137 -3.59437e-05 
         350      21.7142     0.999857    0.0010414 -3.58338e-05 
         350      21.8573     0.999857   0.00104141 -3.57219e-05 
         350      22.0008     0.999858   0.00104141  -3.5607e-05 
         350      22.1449     0.999858   0.00104141 -3.54892e-05 
         350      22.2893     0.999859   0.00104141 -3.53697e-05 
         350      22.4344     0.999859   0.00104142 -3.52496e-05 
         350      22.5797      0.99986   0.00104143 -3.51304e-05 
         350      22.7257      0.99986   0.00104146 -3.50125e-05 
         350      22.8721     0.999861   0.00104149 -3.48956e-05 
         350      23.0189     0.999861   0.00104152 -3.47785e-05 
         350      23.1663     0.999861   0.00104154 -3.46578e-05 
         350       23.314     0.999862   0.00104155  -3.4529e-05 
         350      23.4623     0.999862   0.00104153 -3.43849e-05 
         350       23.611     0.999862   0.00104151 -3.42645e-05 
         350      23.7602     0.999863   0.00104154 -3.42043e-05 
         350        23.91     0.999863   0.00104155 -3.41255e-05 
         350        24.06     0.999864   0.00104154 -3.40311e-05 
         350      24.2107     0.999864   0.00104152 -3.39236e-05 
         350      24.3617     0.999865    0.0010415 -3.38057e-05 
         350      24.5133     0.999865    0.0010415 -3.36794e-05 
         350      24.6653     0.999866   0.00104152  -3.3547e-05 
         350      24.8178     0.999866   0.00104155 -3.34101e-05 
         350      24.9708     0.999867   0.00104159 -3.32708e-05 
         350      25.1242     0.999867   0.00104163 -3.31309e-05 
         350      25.2781     0.999867   0.00104166 -3.29922e-05 
         350      25.4324     0.999867   0.00104166 -3.28568e-05 
         350      25.5873     0.999868   0.00104165 -3.27263e-05 
         350      25.7426     0.999868   0.00104163 -3.26032e-05 
         350      25.8984     0.999869   0.00104166 -3.24892e-05 
         350      26.0546     0.999869   0.00104179 -3.23864e-05 
         350      26.2114      0.99987   0.00104184 -3.22627e-05 
         350      26.3686      0.99987   0.00104173 -3.21262e-05 
         350      26.5262      0.99987   0.00104168 -3.20003e-05 
         350      26.6844     0.999871   0.00104166 -3.18812e-05 
         350      26.8429     0.999872   0.00104168 -3.17663e-05 
         350       27.002     0.999872   0.00104172 -3.16534e-05 
         350      27.1615     0.999873   0.00104177 -3.15414e-05 
         350      27.3216     0.999873   0.00104182 -3.14291e-05 
         350      27.4821     0.999874   0.00104187  -3.1316e-05 
         350       27.643     0.999874    0.0010419 -3.12014e-05 
         350      27.8044     0.999875   0.00104191 -3.10845e-05 
         350      27.9663     0.999875   0.00104191 -3.09645e-05 
         350      28.1287     0.999875   0.00104189 -3.08396e-05 
         350      28.2914     0.999876   0.00104187 -3.07079e-05 
         350      28.4548     0.999876   0.00104185 -3.05663e-05 
         350      28.6185     0.999876   0.00104183 -3.04165e-05 
         350      28.7828     0.999877   0.00104184 -3.03145e-05 
         350      28.9475     0.999877   0.00104186 -3.01991e-05 
         350      29.1126     0.999878    0.0010419 -3.00744e-05 
         350      29.2784     0.999879   0.00104194 -2.99432e-05 
         350      29.4444     0.999879   0.00104197 -2.98083e-05 
         350       29.611      0.99988     0.001042 -2.96714e-05 
         350       29.778      0.99988   0.00104202  -2.9534e-05 
         350      29.9456     0.999881   0.00104203 -2.93971e-05 
         350      30.1137     0.999881   0.00104203 -2.92611e-05 
         350      30.2821     0.999882   0.00104203 -2.91266e-05 
         350      30.4511     0.999882   0.00104204 -2.89932e-05 
         350      30.6204     0.999882   0.00104206 -2.88608e-05 
         350      30.7903     0.999883   0.00104209 -2.87286e-05 
         350      30.9606     0.999883   0.00104213 -2.85962e-05 
         350      31.1315     0.999883   0.00104217 -2.84627e-05 
         350      31.3028     0.999884    0.0010422 -2.83278e-05 
         350      31.4745     0.999884    0.0010422 -2.81915e-05 
         350      31.6468     0.999885   0.00104218  -2.8054e-05 
         350      31.8194     0.999885   0.00104213 -2.79172e-05 
         350      31.9926     0.999886   0.00104212 -2.77835e-05 
         350      32.1662     0.999887   0.00104226 -2.76579e-05 
         350      32.3404     0.999887   0.00104216 -2.75159e-05 
         350      32.5149     0.999888   0.00104211 -2.73851e-05 
         350        32.69     0.999888   0.00104213 -2.72643e-05 
         350      32.8655     0.999889   0.00104217 -2.71467e-05 
         350      33.0414     0.999889   0.00104219  -2.7027e-05 
         350       33.218     0.999889    0.0010422 -2.69012e-05 
         350      33.3948      0.99989    0.0010422 -2.67673e-05 
         350      33.5723      0.99989   0.00104219  -2.6625e-05 
         350        33.75     0.999891    0.0010422 -2.64763e-05 
         350      33.9284     0.999891   0.00104221 -2.63254e-05 
         350      34.1073     0.999892   0.00104221 -2.61798e-05 
         350      34.2865     0.999892   0.00104216 -2.60507e-05 
         350      34.4663     0.999893   0.00104226 -2.58796e-05 
         350      34.6465     0.999894   0.00104237 -2.56937e-05 
         350      34.8272     0.999894   0.00104242 -2.55208e-05 
         350      35.0083     0.999895   0.00104244 -2.53595e-05 
         350        35.19     0.999896   0.00104244 -2.52081e-05 
         350      35.3721     0.999896   0.00104244 -2.50652e-05 
         350      35.5546     0.999897   0.00104244 -2.49293e-05 
         350      35.7377     0.999897   0.00104245 -2.47988e-05 
         350      35.9211     0.999898   0.00104247 -2.46725e-05 
         350      36.1052     0.999898   0.00104248 -2.45488e-05 
         350      36.2895     0.999899    0.0010425 -2.44268e-05 
         350      36.4745     0.999899   0.00104253 -2.43049e-05 
         350      36.6598       0.9999   0.00104254 -2.41823e-05 
         350      36.8457       0.9999   0.00104256 -2.40577e-05 
         350      37.0321     0.999901   0.00104257 -2.39305e-05 
         350      37.2188     0.999901   0.00104257 -2.37998e-05 
         350      37.4062     0.999902   0.00104256  -2.3665e-05 
         350      37.5938     0.999902   0.00104256 -2.35259e-05 
         350      37.7821     0.999903   0.00104254  -2.3382e-05 
         350      37.9707     0.999903   0.00104253 -2.32334e-05 
         350      38.1599     0.999904   0.00104252 -2.30802e-05 
         350      38.3496     0.999904   0.00104251 -2.29228e-05 
         350      38.5396     0.999905   0.00104251 -2.27619e-05 
         350      38.7302     0.999905   0.00104252 -2.25981e-05 
         350      38.9211     0.999906   0.00104253 -2.24325e-05 
         350      39.1127     0.999906   0.00104255 -2.22659e-05 
         350      39.3046     0.999907   0.00104258 -2.20997e-05 
         350      39.4971     0.999908   0.00104261  -2.1935e-05 
         350      39.6899     0.999908   0.00104265 -2.17732e-05 
         350      39.8833     0.999909    0.0010427 -2.16151e-05 
         350      40.0772     0.999909   0.00104274 -2.14619e-05 
         350      40.2714      0.99991   0.00104278 -2.13142e-05 
         350      40.4663      0.99991   0.00104281 -2.11721e-05 
         350      40.6615     0.999911   0.00104284 -2.10354e-05 
         350      40.8573     0.999912   0.00104286 -2.09029e-05 
         350      41.0534     0.999912   0.00104286 -2.07725e-05 
         350      41.2501     0.999913   0.00104286 -2.06408e-05 
         350      41.4473     0.999913   0.00104286 -2.05033e-05 
         350      41.6448     0.999914   0.00104285 -2.03536e-05 
         350      41.8429     0.999914   0.00104286 -2.01829e-05 
         350      42.0414     0.999915   0.00104288 -1.99805e-05 
         350      42.2405     0.999915   0.00104294 -1.97326e-05 
         350      42.4399     0.999915   0.00104291  -1.9594e-05 
         350      42.6399     0.999916   0.00104282  -1.9488e-05 
         350      42.8404     0.999917   0.00104273 -1.93504e-05 
         350      43.0412     0.999918   0.00104265 -1.91933e-05 
         350      43.2426     0.999918   0.00104258 -1.90251e-05 
         350      43.4444     0.999919   0.00104256 -1.88527e-05 
         350      43.6467      0.99992   0.00104261 -1.86794e-05 
         350      43.8494      0.99992   0.00104273 -1.85067e-05 
         350      44.0527     0.999921   0.00104288 -1.83325e-05 
         350      44.2563     0.999921   0.00104295 -1.81517e-05 
         350      44.4606     0.999919   0.00104269 -1.79543e-05 
         350      44.6653      0.99992   0.00104267 -1.77752e-05 
         350      44.8704     0.999922   0.00104295 -1.76296e-05 
         350       45.076     0.999924   0.00104308 -1.74907e-05 
         350       45.282     0.999924   0.00104311 -1.73569e-05 
         350      45.4886     0.999925   0.00104309 -1.72259e-05 
         350      45.6955     0.999925   0.00104304 -1.70959e-05 
         350       45.903     0.999925   0.00104299 -1.69648e-05 
         350      46.1111     0.999925   0.00104294 -1.68304e-05 
         350      46.3194     0.999926    0.0010429 -1.66904e-05 
         350      46.5283     0.999927   0.00104288 -1.65419e-05 
         350      46.7376     0.999927   0.00104287 -1.63822e-05 
         350      46.9475     0.999928   0.00104288 -1.62075e-05 
         350      47.1577     0.999929   0.00104288 -1.60141e-05 
         350      47.3685     0.999929   0.00104289 -1.57971e-05 
         350      47.5798     0.999929   0.00104288 -1.55868e-05 
         350      47.7914      0.99993   0.00104289 -1.54429e-05 
         350      48.0037     0.999931   0.00104293  -1.5286e-05 