Variables = x, y, u, v, p

Zone, I=416, F=POINT
         -50            0            0            0     -196.907 
         -50     0.013333 -0.000388173 -6.35849e-08     -196.907 
         -50     0.053333 -0.000354588 -2.63429e-07     -196.907 
         -50         0.12 -0.000345471 -7.08689e-07     -196.907 
         -50     0.213332 -0.000342305 -1.49792e-06     -196.907 
         -50     0.333332 -0.000341665 -2.49227e-06     -196.907 
         -50         0.48 -0.000342203  -3.2324e-06     -196.907 
         -50     0.653331 -0.000343519 -4.74635e-06     -196.907 
         -50     0.853332 -0.000345005 -6.06799e-06     -196.906 
         -50         1.08 -0.000345744 -6.88786e-06     -196.906 
         -50      1.33333 -0.000345704 -8.16239e-06     -196.905 
         -50      1.61333 -0.000346861 -8.92342e-06     -196.904 
         -50         1.92 -0.000350979  -9.9053e-06     -196.903 
         -50      2.25333 -0.000352182 -1.06682e-05     -196.901 
         -50      2.61333 -0.000349297 -1.17593e-05     -196.899 
         -50            3 -0.000345291 -1.32923e-05     -196.896 
         -25            0           -0           -0     -191.587 
         -25     0.013333 -0.000321861 -9.10806e-09     -191.587 
         -25     0.053333 -0.000275903  7.12557e-08     -191.587 
         -25         0.12  -0.00025558  5.54148e-07     -191.587 
         -25     0.213332 -0.000252803  1.84731e-06     -191.587 
         -25     0.333332 -0.000259515  4.15621e-06     -191.587 
         -25         0.48 -0.000265109  7.38279e-06     -191.587 
         -25     0.653331 -0.000265388  1.13638e-05     -191.587 
         -25     0.853332 -0.000264461  1.54697e-05     -191.586 
         -25         1.08 -0.000268734  1.91515e-05     -191.586 
         -25      1.33333 -0.000277184  2.18963e-05     -191.586 
         -25      1.61333 -0.000287095  2.37042e-05     -191.586 
         -25         1.92 -0.000298356  2.36571e-05     -191.585 
         -25      2.25333 -0.000306528  2.32192e-05     -191.585 
         -25      2.61333 -0.000305636  2.34083e-05     -191.584 
         -25            3 -0.000298472  2.24176e-05     -191.584 
           0            0 -3.93767e-15  2.60481e-15     -186.601 
           0     0.013333  -0.00086557  0.000514983     -186.606 
           0     0.053333 -0.000520649  0.000265078     -186.615 
           0         0.12 -0.000392924  0.000176081     -186.624 
           0     0.213332 -0.000328594  0.000132785     -186.634 
           0     0.333332  -0.00029385  0.000104773     -186.643 
           0         0.48  -0.00027319  8.38501e-05     -186.653 
           0     0.653331 -0.000262304  6.78515e-05     -186.662 
           0     0.853332 -0.000257494  5.52977e-05     -186.671 
           0         1.08 -0.000257184  4.53431e-05      -186.68 
           0      1.33333 -0.000260719  3.73771e-05     -186.688 
           0      1.61333  -0.00026705  3.09028e-05     -186.696 
           0         1.92 -0.000275277  2.56966e-05     -186.703 
           0      2.25333 -0.000282366  2.16625e-05      -186.71 
           0      2.61333 -0.000286385  1.84464e-05     -186.717 
           0            3 -0.000288151  1.56779e-05     -186.723 
          20            0 -0.000223756 -0.000127706     -183.192 
          20     0.013333 -0.000202087 -0.000129875     -183.192 
          20     0.053333 -0.000135865 -0.000136474     -183.192 
          20         0.12 -2.36559e-05 -0.000147885     -183.192 
          20     0.213332  0.000127851 -0.000165076     -183.192 
          20     0.333332  0.000289619 -0.000189967     -183.192 
          20         0.48  0.000399723 -0.000224769     -183.192 
          20     0.653331  0.000426531 -0.000268653     -183.192 
          20     0.853332  0.000378929 -0.000316753     -183.192 
          20         1.08  0.000298269 -0.000361182     -183.191 
          20      1.33333  0.000208491 -0.000395757     -183.191 
          20      1.61333  0.000101811 -0.000416264     -183.191 
          20         1.92 -9.56814e-06 -0.000419652      -183.19 
          20      2.25333 -0.000108719 -0.000405782     -183.189 
          20      2.61333 -0.000182613 -0.000378699     -183.189 
          20            3 -0.000229725 -0.000345039     -183.188 
          40            0            0            0     -179.564 
          40     0.013333 -0.000386912 -3.98853e-07     -179.564 
          40     0.053333 -0.000471814 -5.78093e-06     -179.564 
          40         0.12 -0.000412986 -2.52305e-05     -179.564 
          40     0.213332 -0.000206182  -6.4445e-05     -179.564 
          40     0.333332 -3.96048e-05 -0.000122179     -179.564 
          40         0.48 -4.58955e-05 -0.000195704     -179.564 
          40     0.653331 -0.000141326 -0.000280653     -179.564 
          40     0.853332 -0.000169461 -0.000367621     -179.564 
          40         1.08 -0.000225228 -0.000452044     -179.564 
          40      1.33333 -0.000314837 -0.000525911     -179.564 
          40      1.61333 -0.000367903 -0.000576035     -179.564 
          40         1.92 -0.000390353  -0.00059601     -179.563 
          40      2.25333 -0.000390068 -0.000585099     -179.563 
          40      2.61333 -0.000377138 -0.000548936     -179.563 
          40            3 -0.000361205 -0.000497934     -179.562 
          60            0            0            0     -175.894 
          60     0.013333 -0.000146136 -3.10181e-07     -175.894 
          60     0.053333  0.000324066 -3.94279e-06     -175.894 
          60         0.12  0.000900866 -1.32835e-05     -175.894 
          60     0.213332   0.00130915 -2.23022e-05     -175.894 
          60     0.333332   0.00141703 -2.04291e-05     -175.894 
          60         0.48   0.00135897  -4.3706e-06     -175.894 
          60     0.653331   0.00126417  1.70565e-05     -175.894 
          60     0.853332   0.00106891  2.85688e-05     -175.894 
          60         1.08  0.000752552  2.69419e-05     -175.894 
          60      1.33333  0.000424055  2.13974e-05     -175.894 
          60      1.61333  0.000103501  1.89149e-05     -175.894 
          60         1.92 -0.000210715  1.95348e-05     -175.894 
          60      2.25333 -0.000469627  2.14405e-05     -175.894 
          60      2.61333 -0.000632717  2.59044e-05     -175.894 
          60            3 -0.000692499  3.19916e-05     -175.894 
          80            0           -0           -0     -172.256 
          80     0.013333 -6.01463e-05  -1.2452e-07     -172.256 
          80     0.053333  0.000574299 -1.02957e-06     -172.256 
          80         0.12   0.00122252  4.49512e-07     -172.256 
          80     0.213332   0.00154557   1.5187e-05     -172.256 
          80     0.333332   0.00150019   5.3609e-05     -172.256 
          80         0.48   0.00133192  0.000115586     -172.256 
          80     0.653331   0.00121869   0.00018989     -172.256 
          80     0.853332   0.00103957  0.000256639     -172.256 
          80         1.08   0.00063479  0.000301239     -172.256 
          80      1.33333  0.000205308  0.000327603     -172.256 
          80      1.61333 -9.22819e-05  0.000345587     -172.256 
          80         1.92 -0.000348408  0.000352308     -172.256 
          80      2.25333 -0.000558403  0.000343802     -172.256 
          80      2.61333 -0.000691286  0.000323905     -172.256 
          80            3 -0.000736239   0.00029515     -172.256 
         100            0           -0           -0     -168.625 
         100     0.013333 -1.87131e-05  -9.3833e-08     -168.625 
         100     0.053333  0.000719015 -6.02749e-07     -168.625 
         100         0.12   0.00149198  2.18794e-06     -168.625 
         100     0.213332   0.00192775  1.94401e-05     -168.625 
         100     0.333332   0.00196129  6.19145e-05     -168.625 
         100         0.48   0.00182544  0.000130465     -168.625 
         100     0.653331   0.00170485  0.000215728     -168.625 
         100     0.853332   0.00151655  0.000300655     -168.625 
         100         1.08   0.00112399  0.000371321     -168.625 
         100      1.33333  0.000681786  0.000426394     -168.625 
         100      1.61333  0.000308995  0.000469241     -168.625 
         100         1.92 -7.47253e-05   0.00049382     -168.625 
         100      2.25333 -0.000423759  0.000494695     -168.625 
         100      2.61333 -0.000678097    0.0004759     -168.625 
         100            3 -0.000809531  0.000442107     -168.625 
         150            0            0            0      -159.56 
         150     0.013333 -0.000361783 -1.05327e-07      -159.56 
         150     0.053333 -0.000448368 -1.83233e-06      -159.56 
         150         0.12 -0.000456472 -9.66718e-06      -159.56 
         150     0.213332 -0.000301119  -2.9046e-05      -159.56 
         150     0.333332 -7.71575e-05  -6.1182e-05      -159.56 
         150         0.48    6.926e-05 -0.000101662      -159.56 
         150     0.653331  9.46251e-05 -0.000144308      -159.56 
         150     0.853332  6.85333e-05 -0.000183149      -159.56 
         150         1.08   6.8256e-05 -0.000213517      -159.56 
         150      1.33333  6.37217e-05 -0.000235075      -159.56 
         150      1.61333  1.08838e-05 -0.000249502      -159.56 
         150         1.92 -5.90229e-05 -0.000255239      -159.56 
         150      2.25333 -0.000132832 -0.000250528      -159.56 
         150      2.61333 -0.000202793 -0.000236439      -159.56 
         150            3 -0.000260918 -0.000215368      -159.56 
         200            0           -0           -0     -150.495 
         200     0.013333  -0.00034387 -2.21346e-07     -150.495 
         200     0.053333 -0.000372883 -3.28047e-06     -150.495 
         200         0.12 -0.000303791 -1.45581e-05     -150.495 
         200     0.213332 -9.25181e-05 -3.82692e-05     -150.495 
         200     0.333332  0.000170034 -7.46175e-05     -150.495 
         200         0.48  0.000375755 -0.000120968     -150.495 
         200     0.653331  0.000470467 -0.000175119     -150.495 
         200     0.853332  0.000434659 -0.000236797     -150.495 
         200         1.08  0.000286956 -0.000304655     -150.495 
         200      1.33333  0.000119916 -0.000372447     -150.495 
         200      1.61333 -6.58039e-06 -0.000431535     -150.495 
         200         1.92 -0.000127387  -0.00047646     -150.495 
         200      2.25333 -0.000243323 -0.000503287     -150.495 
         200      2.61333 -0.000336542 -0.000509527     -150.495 
         200            3  -0.00039455  -0.00049657     -150.495 
         250            0           -0           -0      -141.43 
         250     0.013333 -0.000303017 -1.42245e-07      -141.43 
         250     0.053333 -0.000245652 -2.11153e-06      -141.43 
         250         0.12 -0.000121701 -9.26727e-06      -141.43 
         250     0.213332  5.48453e-05 -2.35312e-05      -141.43 
         250     0.333332  0.000188785 -4.31837e-05      -141.43 
         250         0.48  0.000219126 -6.47803e-05      -141.43 
         250     0.653331  0.000158287 -8.65408e-05      -141.43 
         250     0.853332  4.75896e-05 -0.000108338      -141.43 
         250         1.08 -5.97489e-05 -0.000128563      -141.43 
         250      1.33333 -0.000123354 -0.000144233      -141.43 
         250      1.61333 -0.000166511 -0.000154255      -141.43 
         250         1.92 -0.000215211 -0.000158791      -141.43 
         250      2.25333 -0.000265057   -0.0001573      -141.43 
         250      2.61333 -0.000309737 -0.000149758      -141.43 
         250            3 -0.000343682 -0.000137025      -141.43 
         300            0           -0           -0     -132.365 
         300     0.013333 -0.000406753 -1.66187e-07     -132.365 
         300     0.053333   -0.0006047 -2.61612e-06     -132.365 
         300         0.12 -0.000743708 -1.25788e-05     -132.365 
         300     0.213332 -0.000687462   -3.588e-05     -132.365 
         300     0.333332 -0.000484831  -7.5053e-05     -132.365 
         300         0.48 -0.000277844 -0.000128235     -132.365 
         300     0.653331 -0.000167078 -0.000191877     -132.365 
         300     0.853332 -0.000170956 -0.000262963     -132.365 
         300         1.08 -0.000241856  -0.00033785     -132.365 
         300      1.33333 -0.000297118 -0.000410525     -132.365 
         300      1.61333 -0.000303675 -0.000474642     -132.365 
         300         1.92  -0.00029708 -0.000525782     -132.365 
         300      2.25333 -0.000288577 -0.000559586     -132.365 
         300      2.61333 -0.000278314   -0.0005731     -132.365 
         300            3 -0.000267233 -0.000565844     -132.365 
         350            0            0            0       -123.3 
         350     0.013333 -0.000448819  8.97897e-08       -123.3 
         350     0.053333 -0.000818602  1.04464e-06       -123.3 
         350         0.12   -0.0013021  2.76478e-06       -123.3 
         350     0.213332  -0.00167424  1.53491e-06       -123.3 
         350     0.333332   -0.0018202 -8.14147e-06       -123.3 
         350         0.48  -0.00180036 -2.87961e-05       -123.3 
         350     0.653331  -0.00173629 -5.82048e-05       -123.3 
         350     0.853332   -0.0016647  -9.0838e-05       -123.3 
         350         1.08    -0.001528   -0.0001205       -123.3 
         350      1.33333  -0.00130444 -0.000144125       -123.3 
         350      1.61333  -0.00105512 -0.000163066       -123.3 
         350         1.92 -0.000804505 -0.000178023       -123.3 
         350      2.25333 -0.000548877 -0.000187464       -123.3 
         350      2.61333 -0.000304515 -0.000190538       -123.3 
         350            3 -0.000100427 -0.000186924       -123.3 
         400            0            0            0     -114.234 
         400     0.013333  -0.00038632 -1.17286e-08     -114.234 
         400     0.053333 -0.000568771 -3.59892e-07     -114.234 
         400         0.12  -0.00077126 -2.78587e-06     -114.234 
         400     0.213332 -0.000856439 -1.08173e-05     -114.234 
         400     0.333332 -0.000800409 -2.74767e-05     -114.234 
         400         0.48 -0.000687397  -5.2813e-05     -114.234 
         400     0.653331 -0.000609772 -8.43275e-05     -114.234 
         400     0.853332  -0.00058535 -0.000118318     -114.234 
         400         1.08 -0.000554739 -0.000150162     -114.234 
         400      1.33333  -0.00047541 -0.000176665     -114.234 
         400      1.61333  -0.00039081 -0.000198565     -114.234 
         400         1.92 -0.000324941 -0.000216654     -114.234 
         400      2.25333 -0.000265776 -0.000229116     -114.234 
         400      2.61333 -0.000212165 -0.000234683     -114.234 
         400            3 -0.000170863 -0.000232849     -114.234 
         450            0            0            0     -105.168 
         450     0.013333 -0.000274737 -1.20676e-07     -105.168 
         450     0.053333 -0.000144047 -1.78832e-06     -105.168 
         450         0.12  7.37213e-05 -7.84162e-06     -105.168 
         450     0.213332  0.000348352 -1.98792e-05     -105.168 
         450     0.333332  0.000574452 -3.62178e-05     -105.168 
         450         0.48  0.000678076 -5.33878e-05     -105.168 
         450     0.653331  0.000663327 -6.95053e-05     -105.168 
         450     0.853332  0.000568467 -8.48701e-05     -105.168 
         450         1.08  0.000442177 -9.90316e-05     -105.168 
         450      1.33333  0.000337996 -0.000109632     -105.168 
         450      1.61333  0.000249382 -0.000115939     -105.168 
         450         1.92  0.000137909 -0.000119164     -105.168 
         450      2.25333  8.68423e-06 -0.000119364     -105.168 
         450      2.61333 -0.000125373 -0.000116166     -105.168 
         450            3 -0.000251039 -0.000109498     -105.168 
         500            0           -0           -0      -96.102 
         500     0.013333 -0.000381111 -2.37122e-07      -96.102 
         500     0.053333 -0.000486257 -3.69303e-06      -96.102 
         500         0.12 -0.000447386 -1.74408e-05      -96.102 
         500     0.213332 -0.000160784 -4.84628e-05      -96.102 
         500     0.333332  0.000234072 -9.79226e-05      -96.102 
         500         0.48  0.000518225 -0.000160673      -96.102 
         500     0.653331  0.000586628 -0.000230801      -96.102 
         500     0.853332  0.000466191 -0.000305016      -96.102 
         500         1.08  0.000267665 -0.000379373      -96.102 
         500      1.33333  0.000132875 -0.000446835      -96.102 
         500      1.61333  8.33958e-05 -0.000502729      -96.102 
         500         1.92   2.5827e-05 -0.000546921      -96.102 
         500      2.25333 -5.27223e-05 -0.000577541      -96.102 
         500      2.61333 -0.000139945 -0.000591719      -96.102 
         500            3  -0.00022522 -0.000587507      -96.102 
         550            0 -4.17301e-19  -5.1554e-27     -87.0378 
         550     0.013333 -0.000535155  2.04466e-07     -87.0378 
         550     0.053333  -0.00116101  2.64418e-06     -87.0378 
         550         0.12  -0.00202322  9.13012e-06     -87.0378 
         550     0.213332  -0.00276434  1.56348e-05     -87.0378 
         550     0.333332  -0.00312597  1.32568e-05     -87.0378 
         550         0.48  -0.00313712 -4.18779e-06     -87.0378 
         550     0.653331  -0.00300401 -3.51731e-05     -87.0378 
         550     0.853332  -0.00284985 -7.19412e-05     -87.0378 
         550         1.08  -0.00261659 -0.000104374     -87.0378 
         550      1.33333  -0.00223406 -0.000126512     -87.0378 
         550      1.61333  -0.00179694 -0.000141265     -87.0378 
         550         1.92  -0.00139714 -0.000153803     -87.0377 
         550      2.25333 -0.000997483 -0.000163808     -87.0377 
         550      2.61333 -0.000588997 -0.000169777     -87.0377 
         550            3 -0.000206515  -0.00017084     -87.0377 
         600            0            0            0     -77.9722 
         600     0.013333 -0.000138507  1.32663e-07     -77.9722 
         600     0.053333  0.000266379  2.20505e-06     -77.9722 
         600         0.12  0.000614436   1.1303e-05     -77.9722 
         600     0.213332  0.000721514  3.41248e-05     -77.9722 
         600     0.333332  0.000604361  7.44721e-05     -77.9722 
         600         0.48  0.000433443  0.000130784     -77.9722 
         600     0.653331  0.000356534  0.000198802     -77.9722 
         600     0.853332  0.000412395  0.000274707     -77.9722 
         600         1.08  0.000529861  0.000353796     -77.9722 
         600      1.33333  0.000564881  0.000428352     -77.9722 
         600      1.61333  0.000454222  0.000491765     -77.9722 
         600         1.92  0.000298234  0.000543232     -77.9722 
         600      2.25333  0.000142935   0.00058202     -77.9722 
         600      2.61333 -1.08072e-05   0.00060551     -77.9722 
         600            3 -0.000163234  0.000611073     -77.9723 
         650            0            0            0     -68.9071 
         650     0.013333 -0.000265085 -2.89401e-07     -68.9071 
         650     0.053333 -5.60027e-05 -4.27659e-06     -68.9071 
         650         0.12  0.000386023 -1.88208e-05     -68.9071 
         650     0.213332   0.00101653 -4.85302e-05     -68.9071 
         650     0.333332   0.00160703 -9.13444e-05     -68.9071 
         650         0.48    0.0019598 -0.000140587     -68.9071 
         650     0.653331   0.00204897 -0.000191184     -68.9071 
         650     0.853332    0.0019451 -0.000242942     -68.9071 
         650         1.08   0.00170049 -0.000298149     -68.9071 
         650      1.33333   0.00137756 -0.000355833     -68.9071 
         650      1.61333   0.00107408  -0.00041035     -68.9071 
         650         1.92  0.000806463  -0.00045654     -68.9071 
         650      2.25333  0.000525322 -0.000492828     -68.9071 
         650      2.61333  0.000220586 -0.000516905     -68.9071 
         650            3 -8.19847e-05 -0.000526353     -68.9071 
         700            0  -2.9861e-19  8.00846e-27     -59.8421 
         700     0.013333 -0.000206752  2.54595e-07     -59.8421 
         700     0.053333 -1.25617e-05  3.88763e-06     -59.8421 
         700         0.12  -6.4224e-08  1.80236e-05     -59.8421 
         700     0.213332 -0.000275058  4.97445e-05     -59.8421 
         700     0.333332 -0.000728042  0.000101361     -59.8421 
         700         0.48  -0.00114694  0.000169641     -59.8421 
         700     0.653331  -0.00139599  0.000249646     -59.8421 
         700     0.853332  -0.00145039  0.000338515     -59.8421 
         700         1.08  -0.00133725  0.000435253     -59.8421 
         700      1.33333  -0.00112632  0.000537054     -59.8421 
         700      1.61333 -0.000925634  0.000637255     -59.8421 
         700         1.92 -0.000783761  0.000728716     -59.8421 
         700      2.25333 -0.000653906  0.000806545     -59.8421 
         700      2.61333 -0.000512822   0.00086613     -59.8421 
         700            3 -0.000370952  0.000903065     -59.8421 
         750            0            0            0     -50.7752 
         750     0.013333 -0.000414463 -4.95272e-08     -50.7752 
         750     0.053333 -0.000668947 -8.53122e-07     -50.7752 
         750         0.12 -0.000969815 -4.56761e-06     -50.7752 
         750     0.213332  -0.00116807  -1.4421e-05     -50.7752 
         750     0.333332  -0.00122242 -3.28853e-05     -50.7752 
         750         0.48  -0.00119198 -6.02275e-05     -50.7752 
         750     0.653331  -0.00116047 -9.51435e-05     -50.7752 
         750     0.853332  -0.00117425 -0.000136064     -50.7752 
         750         1.08   -0.0012216 -0.000180794     -50.7752 
         750      1.33333  -0.00123493 -0.000225452     -50.7752 
         750      1.61333  -0.00115778 -0.000265817     -50.7752 
         750         1.92  -0.00101941 -0.000300286     -50.7752 
         750      2.25333 -0.000862571 -0.000328478     -50.7752 
         750      2.61333 -0.000698172 -0.000349043     -50.7752 
         750            3 -0.000525957 -0.000360279     -50.7752 
         800            0            0            0     -41.7077 
         800     0.013333 -0.000341815  1.21744e-07     -41.7077 
         800     0.053333 -0.000460613  1.79375e-06     -41.7077 
         800         0.12 -0.000730263  7.84034e-06     -41.7077 
         800     0.213332  -0.00108374  1.99414e-05     -41.7077 
         800     0.333332  -0.00139166  3.66458e-05     -41.7077 
         800         0.48  -0.00155529   5.4414e-05     -41.7077 
         800     0.653331   -0.0015724  7.07482e-05     -41.7077 
         800     0.853332  -0.00149139  8.58382e-05     -41.7077 
         800         1.08  -0.00134925  0.000101157     -41.7077 
         800      1.33333  -0.00118345  0.000116463     -41.7077 
         800      1.61333  -0.00104115  0.000129529     -41.7077 
         800         1.92 -0.000918275  0.000138713     -41.7077 
         800      2.25333 -0.000783826  0.000145159     -41.7077 
         800      2.61333 -0.000630445  0.000148306     -41.7077 
         800            3 -0.000469573  0.000147296     -41.7077 
         850            0           -0           -0       -32.64 
         850     0.013333  -0.00032456 -1.54692e-07       -32.64 
         850     0.053333 -0.000312572 -2.31648e-06       -32.64 
         850         0.12 -0.000213798 -1.04081e-05       -32.64 
         850     0.213332  4.91103e-06 -2.75657e-05       -32.64 
         850     0.333332  0.000252794 -5.35507e-05       -32.64 
         850         0.48  0.000419983 -8.53924e-05       -32.64 
         850     0.653331  0.000468652 -0.000120637       -32.64 
         850     0.853332   0.00041412 -0.000159379       -32.64 
         850         1.08  0.000271505 -0.000202985       -32.64 
         850      1.33333  8.18522e-05  -0.00025042       -32.64 
         850      1.61333 -6.66112e-05 -0.000296895       -32.64 
         850         1.92 -0.000138353  -0.00033819       -32.64 
         850      2.25333 -0.000188982 -0.000372727       -32.64 
         850      2.61333 -0.000245729 -0.000399622     -32.6401 
         850            3 -0.000302034 -0.000417319     -32.6401 
         900            0            0            0     -23.5741 
         900     0.013333 -0.000287711  1.96964e-07     -23.5741 
         900     0.053333 -0.000291842  2.98195e-06     -23.5741 
         900         0.12 -0.000493437  1.36317e-05     -23.5741 
         900     0.213332 -0.000905192  3.68668e-05     -23.5741 
         900     0.333332  -0.00138282  7.30971e-05     -23.5741 
         900         0.48  -0.00173813  0.000118274     -23.5741 
         900     0.653331  -0.00188725  0.000167697     -23.5741 
         900     0.853332  -0.00185447  0.000219434     -23.5741 
         900         1.08   -0.0016922  0.000273869     -23.5741 
         900      1.33333   -0.0014645  0.000330074     -23.5741 
         900      1.61333  -0.00125714  0.000383977     -23.5741 
         900         1.92  -0.00110333  0.000431694     -23.5741 
         900      2.25333  -0.00095044  0.000471644      -23.574 
         900      2.61333 -0.000774272  0.000502614      -23.574 
         900            3 -0.000585577   0.00052258      -23.574 
         950            0            0            0     -14.5077 
         950     0.013333  -0.00050705  3.75721e-09     -14.5077 
         950     0.053333  -0.00102117 -1.38815e-07     -14.5077 
         950         0.12  -0.00168126 -1.88765e-06     -14.5077 
         950     0.213332  -0.00221498 -9.18146e-06     -14.5077 
         950     0.333332  -0.00246052 -2.71043e-05     -14.5077 
         950         0.48  -0.00244265 -5.88351e-05     -14.5077 
         950     0.653331   -0.0023066 -0.000104191     -14.5077 
         950     0.853332  -0.00218638 -0.000160675     -14.5077 
         950         1.08  -0.00212478 -0.000224556     -14.5077 
         950      1.33333  -0.00206292 -0.000290747     -14.5077 
         950      1.61333  -0.00191313 -0.000353687     -14.5077 
         950         1.92  -0.00167313 -0.000410146     -14.5077 
         950      2.25333  -0.00140275 -0.000460248     -14.5077 
         950      2.61333  -0.00112137 -0.000502085     -14.5077 
         950            3 -0.000823918 -0.000532884     -14.5077 
        1000            0 -3.95258e-19  7.10205e-25     -5.44055 
        1000     0.013333 -0.000468357  1.40011e-09     -5.44055 
        1000     0.053333  -0.00088309  -1.0018e-07     -5.44055 
        1000         0.12  -0.00142859 -1.19702e-06     -5.44055 
        1000     0.213332  -0.00187758 -5.87241e-06     -5.44055 
        1000     0.333332  -0.00207346 -1.80652e-05     -5.44055 
        1000         0.48  -0.00200877 -4.11268e-05     -5.44055 
        1000     0.653331  -0.00180036 -7.59019e-05     -5.44055 
        1000     0.853332  -0.00157937 -0.000120812     -5.44055 
        1000         1.08  -0.00141525 -0.000173467     -5.44055 
        1000      1.33333  -0.00131543  -0.00023166     -5.44055 
        1000      1.61333  -0.00124689 -0.000292949     -5.44055 
        1000         1.92  -0.00115517 -0.000353641     -5.44055 
        1000      2.25333  -0.00102915 -0.000410704     -5.44055 
        1000      2.61333 -0.000877775 -0.000460781     -5.44054 
        1000            3 -0.000713598 -0.000501032     -5.44053 
