Variables = x, y, u, v, p

Zone, I=416, F=POINT
         -50            0            0            0      228.606 
         -50     0.013333  0.000633926  9.76702e-08      228.606 
         -50     0.053333  0.000564704  4.39803e-07      228.606 
         -50         0.12  0.000532862   1.0945e-06      228.606 
         -50     0.213332  0.000515441  1.92703e-06      228.606 
         -50     0.333332  0.000506418  2.97887e-06      228.606 
         -50         0.48  0.000501266  3.96202e-06      228.606 
         -50     0.653331   0.00050053  4.22035e-06      228.606 
         -50     0.853332  0.000506978   5.2973e-06      228.605 
         -50         1.08  0.000520998  6.66241e-06      228.604 
         -50      1.33333  0.000538114  8.42162e-06      228.604 
         -50      1.61333  0.000552672   1.0032e-05      228.602 
         -50         1.92  0.000561247  1.09666e-05      228.601 
         -50      2.25333   0.00056894  1.44092e-05      228.599 
         -50      2.61333   0.00057201  1.65703e-05      228.596 
         -50            3  0.000565679  1.17861e-05      228.593 
         -25            0           -0           -0      222.392 
         -25     0.013333  0.000540393  2.09984e-08      222.392 
         -25     0.053333  0.000487766  4.42999e-08      222.392 
         -25         0.12  0.000472856 -3.81941e-08      222.392 
         -25     0.213332  0.000473202 -3.57569e-07      222.392 
         -25     0.333332  0.000479105 -9.73827e-07      222.391 
         -25         0.48  0.000484242 -1.86538e-06      222.391 
         -25     0.653331  0.000487553 -2.80136e-06      222.391 
         -25     0.853332  0.000489655 -3.84935e-06      222.391 
         -25         1.08  0.000491135 -4.65298e-06      222.391 
         -25      1.33333  0.000490777 -5.13765e-06      222.391 
         -25      1.61333  0.000489463  -5.1683e-06      222.391 
         -25         1.92   0.00049055 -4.65447e-06       222.39 
         -25      2.25333  0.000487891 -3.73684e-06       222.39 
         -25      2.61333  0.000484465 -1.65421e-06      222.389 
         -25            3  0.000485944  1.95439e-06      222.388 
           0            0  6.91643e-15 -4.58964e-15      216.567 
           0     0.013333   0.00147769 -0.000870596      216.573 
           0     0.053333  0.000890749  -0.00044433      216.583 
           0         0.12  0.000700889  -0.00028954      216.594 
           0     0.213332  0.000625258 -0.000219742      216.605 
           0     0.333332    0.0005888 -0.000177621      216.617 
           0         0.48  0.000560913 -0.000147026      216.628 
           0     0.653331  0.000539199 -0.000124585      216.639 
           0     0.853332  0.000521379 -0.000107606      216.649 
           0         1.08  0.000507046 -9.43237e-05      216.659 
           0      1.33333  0.000495681 -8.37538e-05      216.669 
           0      1.61333  0.000485829   -7.469e-05      216.678 
           0         1.92  0.000475569 -6.68287e-05      216.687 
           0      2.25333  0.000465346 -5.97388e-05      216.695 
           0      2.61333  0.000458306 -5.30092e-05      216.703 
           0            3  0.000455664  -4.6141e-05       216.71 
          20            0  0.000610466 -0.000197827      212.586 
          20     0.013333  0.000622438 -0.000199786      212.586 
          20     0.053333  0.000660096 -0.000205467      212.586 
          20         0.12  0.000727707 -0.000214353      212.586 
          20     0.213332  0.000827034 -0.000225914      212.586 
          20     0.333332  0.000944466 -0.000240124      212.586 
          20         0.48   0.00103326 -0.000257978      212.586 
          20     0.653331   0.00105014 -0.000279651      212.586 
          20     0.853332  0.000988254  -0.00030271      212.586 
          20         1.08  0.000883399 -0.000322142      212.585 
          20      1.33333  0.000768756 -0.000333496      212.585 
          20      1.61333  0.000644604 -0.000334197      212.584 
          20         1.92  0.000528878 -0.000322872      212.584 
          20      2.25333  0.000434246 -0.000300612      212.583 
          20      2.61333  0.000371209 -0.000270194      212.582 
          20            3  0.000344762 -0.000234492      212.581 
          40            0            0            0       208.35 
          40     0.013333  0.000499273 -4.01162e-07       208.35 
          40     0.053333  0.000540324 -6.01441e-06       208.35 
          40         0.12  0.000850094 -2.58488e-05       208.35 
          40     0.213332   0.00132615 -6.45428e-05       208.35 
          40     0.333332   0.00172245 -0.000119415       208.35 
          40         0.48   0.00188045 -0.000187254       208.35 
          40     0.653331   0.00187355 -0.000264813       208.35 
          40     0.853332   0.00185153 -0.000343581       208.35 
          40         1.08   0.00167846 -0.000419976       208.35 
          40      1.33333   0.00134138 -0.000488963      208.349 
          40      1.61333  0.000975162 -0.000537865      208.349 
          40         1.92  0.000629726 -0.000559512      208.349 
          40      2.25333  0.000350766 -0.000552959      208.349 
          40      2.61333   0.00017363 -0.000521277      208.348 
          40            3  0.000102428 -0.000472817      208.347 
          60            0            0            0      204.065 
          60     0.013333  0.000475432 -2.80162e-07      204.065 
          60     0.053333   0.00043681 -4.05675e-06      204.065 
          60         0.12  0.000553798 -1.71207e-05      204.065 
          60     0.213332  0.000762442 -4.19551e-05      204.065 
          60     0.333332  0.000929854 -7.57423e-05      204.065 
          60         0.48  0.000987287 -0.000115247      204.065 
          60     0.653331  0.000920368 -0.000161696      204.065 
          60     0.853332  0.000727299 -0.000218396      204.065 
          60         1.08  0.000508764 -0.000280898      204.065 
          60      1.33333  0.000383442  -0.00033783      204.065 
          60      1.61333  0.000331399 -0.000380015      204.065 
          60         1.92  0.000300899 -0.000402544      204.065 
          60      2.25333  0.000286175 -0.000404017      204.065 
          60      2.61333  0.000287186 -0.000386685      204.065 
          60            3  0.000298918 -0.000356556      204.065 
          80            0           -0           -0      199.818 
          80     0.013333  0.000478488 -2.09155e-07      199.818 
          80     0.053333  0.000448662 -3.14411e-06      199.818 
          80         0.12  0.000585851 -1.40501e-05      199.818 
          80     0.213332  0.000856409 -3.66077e-05      199.818 
          80     0.333332   0.00112556 -6.94123e-05      199.818 
          80         0.48   0.00128497 -0.000107912      199.818 
          80     0.653331   0.00130744  -0.00014912      199.818 
          80     0.853332    0.0011976 -0.000192558      199.818 
          80         1.08    0.0010117 -0.000235597      199.818 
          80      1.33333  0.000847655 -0.000272076      199.818 
          80      1.61333  0.000712514 -0.000297263      199.818 
          80         1.92   0.00056874 -0.000309428      199.818 
          80      2.25333  0.000436441 -0.000307519      199.818 
          80      2.61333  0.000340261 -0.000292449      199.818 
          80            3  0.000287534 -0.000268606      199.818 
         100            0           -0           -0      195.581 
         100     0.013333  0.000340864 -1.89861e-07      195.581 
         100     0.053333 -3.47283e-05 -3.17584e-06      195.581 
         100         0.12 -0.000275689 -1.62212e-05      195.581 
         100     0.213332 -0.000233553 -4.82432e-05      195.581 
         100     0.333332 -4.36918e-06 -0.000103086      195.581 
         100         0.48  0.000199527 -0.000177384      195.581 
         100     0.653331  0.000261112 -0.000264501      195.581 
         100     0.853332  0.000228255 -0.000355825      195.581 
         100         1.08  0.000236698 -0.000441149      195.581 
         100      1.33333  0.000313029 -0.000512717      195.581 
         100      1.61333  0.000384527 -0.000566992      195.581 
         100         1.92  0.000437959 -0.000599283      195.581 
         100      2.25333  0.000481043 -0.000604945      195.581 
         100      2.61333  0.000511976  -0.00058592      195.581 
         100            3  0.000522615 -0.000548407      195.581 
         150            0            0            0       185.01 
         150     0.013333  0.000694817 -1.38851e-07       185.01 
         150     0.053333   0.00117753 -1.53347e-06       185.01 
         150         0.12   0.00178118 -3.46314e-06       185.01 
         150     0.213332    0.0021894  6.85134e-07       185.01 
         150     0.333332    0.0022875  1.92505e-05       185.01 
         150         0.48   0.00220392  5.45995e-05       185.01 
         150     0.653331   0.00209165  0.000101641       185.01 
         150     0.853332   0.00194787  0.000150534       185.01 
         150         1.08   0.00169222  0.000192883       185.01 
         150      1.33333   0.00136077  0.000225964       185.01 
         150      1.61333   0.00103477  0.000251632       185.01 
         150         1.92  0.000709762  0.000268445       185.01 
         150      2.25333  0.000404943  0.000272941       185.01 
         150      2.61333  0.000162297  0.000266857      185.009 
         150            3  1.69104e-05  0.000251774      185.009 
         200            0           -0           -0      174.451 
         200     0.013333  0.000726949  3.33244e-07      174.451 
         200     0.053333   0.00117547  5.40327e-06      174.451 
         200         0.12   0.00147664   2.6764e-05      174.451 
         200     0.213332   0.00134554  7.78001e-05      174.451 
         200     0.333332  0.000917894  0.000163797      174.451 
         200         0.48  0.000521937  0.000279251      174.451 
         200     0.653331  0.000357454  0.000414835      174.451 
         200     0.853332  0.000406783  0.000561146      174.451 
         200         1.08   0.00049851  0.000705887      174.451 
         200      1.33333  0.000498403  0.000835256      174.451 
         200      1.61333  0.000449359  0.000940453      174.451 
         200         1.92  0.000410925   0.00101435      174.451 
         200      2.25333  0.000381355   0.00104867      174.451 
         200      2.61333  0.000358776    0.0010414      174.451 
         200            3  0.000348462  0.000996426      174.451 
         250            0           -0           -0      163.902 
         250     0.013333  0.000609661  2.44364e-07      163.902 
         250     0.053333  0.000800699  3.75915e-06      163.902 
         250         0.12  0.000925694  1.74052e-05      163.902 
         250     0.213332  0.000868822  4.72911e-05      163.902 
         250     0.333332   0.00072474  9.39939e-05      163.902 
         250         0.48  0.000636451  0.000153815      163.902 
         250     0.653331  0.000669684  0.000223659      163.902 
         250     0.853332  0.000806586  0.000301275      163.902 
         250         1.08  0.000939936  0.000380433      163.902 
         250      1.33333  0.000949255  0.000451155      163.902 
         250      1.61333  0.000863115    0.0005073      163.902 
         250         1.92  0.000762036  0.000546599      163.902 
         250      2.25333  0.000654751  0.000565375      163.902 
         250      2.61333  0.000548117  0.000562082      163.902 
         250            3  0.000458802  0.000538312      163.902 
         300            0           -0           -0      153.358 
         300     0.013333  0.000431529  5.15655e-07      153.358 
         300     0.053333  8.96849e-05  7.50785e-06      153.358 
         300         0.12 -0.000588319  3.22516e-05      153.358 
         300     0.213332  -0.00148067   8.0643e-05      153.358 
         300     0.333332  -0.00224075  0.000147114      153.358 
         300         0.48  -0.00264887  0.000221035      153.358 
         300     0.653331  -0.00271766  0.000297156      153.358 
         300     0.853332   -0.0025151   0.00037765      153.358 
         300         1.08  -0.00209936  0.000463648      153.358 
         300      1.33333  -0.00160546   0.00054835      153.358 
         300      1.61333  -0.00112915  0.000621516      153.358 
         300         1.92 -0.000631232  0.000677171      153.358 
         300      2.25333 -0.000114741  0.000710958      153.358 
         300      2.61333  0.000369946  0.000719216      153.358 
         300            3  0.000760342  0.000702086      153.358 
         350            0            0            0      142.823 
         350     0.013333  0.000520977  4.09848e-08      142.823 
         350     0.053333  0.000545405  5.58316e-07      142.823 
         350         0.12  0.000625719  2.10681e-06      142.823 
         350     0.213332  0.000739377  4.28496e-06      142.823 
         350     0.333332  0.000875799  5.99574e-06      142.823 
         350         0.48   0.00100353  7.27032e-06      142.823 
         350     0.653331   0.00110107  1.00976e-05      142.823 
         350     0.853332   0.00118098  1.69247e-05      142.823 
         350         1.08   0.00124244  2.75955e-05      142.823 
         350      1.33333   0.00122654  3.78433e-05      142.823 
         350      1.61333   0.00111544  4.38397e-05      142.823 
         350         1.92  0.000972902  4.61518e-05      142.823 
         350      2.25333   0.00081661  4.55354e-05      142.823 
         350      2.61333  0.000656427  4.22317e-05      142.823 
         350            3  0.000510476  3.65666e-05      142.823 
         400            0            0            0      132.291 
         400     0.013333  0.000380619  2.11069e-07      132.291 
         400     0.053333 -8.07377e-06  2.91258e-06      132.291 
         400         0.12  -0.00054254    1.148e-05      132.291 
         400     0.213332  -0.00107244  2.55539e-05      132.291 
         400     0.333332  -0.00142472  4.03015e-05      132.291 
         400         0.48  -0.00156511  5.09955e-05      132.291 
         400     0.653331  -0.00157156  5.71745e-05      132.291 
         400     0.853332  -0.00149131  6.28818e-05      132.291 
         400         1.08   -0.0012912  7.34843e-05      132.291 
         400      1.33333 -0.000983793  8.98927e-05      132.291 
         400      1.61333 -0.000664474  0.000107233      132.291 
         400         1.92 -0.000351376  0.000121672      132.291 
         400      2.25333 -2.63466e-05  0.000132805      132.291 
         400      2.61333  0.000295052  0.000139657      132.291 
         400            3  0.000574944  0.000141577      132.291 
         450            0            0            0      121.766 
         450     0.013333  0.000551958 -7.44891e-08      121.766 
         450     0.053333  0.000676378 -1.02129e-06      121.766 
         450         0.12  0.000904705 -3.94286e-06      121.766 
         450     0.213332   0.00112906 -8.33827e-06      121.766 
         450     0.333332    0.0012625 -1.17976e-05      121.766 
         450         0.48   0.00129127 -1.21585e-05      121.766 
         450     0.653331   0.00125621 -9.53977e-06      121.766 
         450     0.853332   0.00118692 -5.79715e-06      121.766 
         450         1.08   0.00109484 -2.16207e-06      121.766 
         450      1.33333  0.000995268  1.56129e-06      121.766 
         450      1.61333  0.000888873  5.27708e-06      121.766 
         450         1.92  0.000771138  8.38842e-06      121.766 
         450      2.25333  0.000646142  1.08969e-05      121.766 
         450      2.61333  0.000521836   1.2671e-05      121.766 
         450            3  0.000409918  1.35217e-05      121.766 
         500            0           -0           -0      111.245 
         500     0.013333  0.000510619 -3.83236e-07      111.245 
         500     0.053333   0.00062158  -5.7044e-06      111.245 
         500         0.12   0.00106076 -2.52864e-05      111.245 
         500     0.213332    0.0017443 -6.54334e-05      111.245 
         500     0.333332    0.0023715 -0.000123055      111.245 
         500         0.48   0.00269468 -0.000188934      111.245 
         500     0.653331      0.00269 -0.000256912      111.245 
         500     0.853332   0.00244778 -0.000326952      111.245 
         500         1.08   0.00208126 -0.000398747      111.245 
         500      1.33333   0.00174163 -0.000466012      111.245 
         500      1.61333     0.001491 -0.000522096      111.245 
         500         1.92    0.0012416  -0.00056554      111.245 
         500      2.25333  0.000965027 -0.000594609      111.245 
         500      2.61333  0.000677989 -0.000606714      111.245 
         500            3    0.0004117 -0.000600019      111.245 
         550            0  3.98404e-19  7.08447e-27      100.726 
         550     0.013333  4.94987e-05   9.5257e-09      100.726 
         550     0.053333  -0.00111904 -6.26493e-07      100.726 
         550         0.12  -0.00236763 -7.85484e-06      100.726 
         550     0.213332  -0.00309252 -3.63618e-05      100.726 
         550     0.333332  -0.00309043 -0.000101526      100.726 
         550         0.48  -0.00268519  -0.00020694      100.726 
         550     0.653331  -0.00232479 -0.000342723      100.726 
         550     0.853332  -0.00216887 -0.000492623      100.726 
         550         1.08  -0.00202715 -0.000638274      100.726 
         550      1.33333  -0.00166547 -0.000765198      100.726 
         550      1.61333  -0.00115919 -0.000871384      100.726 
         550         1.92 -0.000694906  -0.00096092      100.726 
         550      2.25333 -0.000249857  -0.00102966      100.727 
         550      2.61333  0.000193562  -0.00107124      100.727 
         550            3    0.0006024  -0.00108107      100.727 
         600            0            0            0      90.2134 
         600     0.013333   0.00089663  6.81893e-07      90.2134 
         600     0.053333   0.00168153  1.07009e-05      90.2134 
         600         0.12   0.00211396  5.13168e-05      90.2134 
         600     0.213332   0.00166557  0.000146115      90.2134 
         600     0.333332   0.00057139  0.000304892      90.2134 
         600         0.48 -0.000507339  0.000518462      90.2134 
         600     0.653331  -0.00109522  0.000770456      90.2134 
         600     0.853332  -0.00109865   0.00104935      90.2134 
         600         1.08 -0.000693987    0.0013453      90.2134 
         600      1.33333 -0.000254492   0.00163974      90.2134 
         600      1.61333  -6.0806e-05    0.0019099      90.2134 
         600         1.92  9.83436e-06   0.00214308      90.2134 
         600      2.25333  9.55864e-05   0.00232964      90.2134 
         600      2.61333  0.000211893   0.00245684      90.2134 
         600            3  0.000325379   0.00251296      90.2134 
         650            0            0            0       79.705 
         650     0.013333  0.000265904 -5.28386e-07       79.705 
         650     0.053333 -0.000215315 -8.07538e-06       79.705 
         650         0.12 -0.000377851 -3.73826e-05       79.705 
         650     0.213332   6.9343e-06 -0.000102643       79.705 
         650     0.333332  0.000716878 -0.000207491       79.705 
         650         0.48   0.00134316 -0.000344529       79.705 
         650     0.653331   0.00164586 -0.000504675       79.705 
         650     0.853332   0.00158587 -0.000684273       79.705 
         650         1.08   0.00122626   -0.0008816       79.705 
         650      1.33333  0.000778445  -0.00108672       79.705 
         650      1.61333  0.000512941  -0.00128103       79.705 
         650         1.92  0.000428781  -0.00145059       79.705 
         650      2.25333   0.00037732  -0.00158896       79.705 
         650      2.61333  0.000314054  -0.00168787       79.705 
         650            3  0.000264554  -0.00173895       79.705 
         700            0  5.82836e-19  1.73713e-26      69.2017 
         700     0.013333  0.000554774   2.2629e-07      69.2017 
         700     0.053333  0.000602289  3.40322e-06      69.2017 
         700         0.12  0.000537623  1.54237e-05      69.2017 
         700     0.213332  0.000272443  4.14473e-05      69.2017 
         700     0.333332 -9.13902e-05  8.22345e-05      69.2017 
         700         0.48 -0.000396063  0.000134515      69.2017 
         700     0.653331 -0.000561751  0.000194725      69.2017 
         700     0.853332 -0.000583315  0.000261917      69.2017 
         700         1.08 -0.000463201  0.000337163      69.2017 
         700      1.33333 -0.000241467  0.000419004      69.2017 
         700      1.61333 -3.86769e-05  0.000500193      69.2017 
         700         1.92  8.05124e-05  0.000572873      69.2017 
         700      2.25333  0.000180012  0.000633239      69.2017 
         700      2.61333    0.0002907  0.000678318      69.2017 
         700            3  0.000400196  0.000705036      69.2017 
         750            0            0            0       58.704 
         750     0.013333  0.000279015  1.61733e-07       58.704 
         750     0.053333 -0.000374808  2.21984e-06       58.704 
         750         0.12  -0.00124423  8.55021e-06       58.704 
         750     0.213332  -0.00206568  1.77026e-05       58.704 
         750     0.333332  -0.00256006  2.29314e-05       58.704 
         750         0.48  -0.00264575  1.65703e-05       58.704 
         750     0.653331  -0.00245696 -4.17026e-06       58.704 
         750     0.853332  -0.00217032 -3.62486e-05       58.704 
         750         1.08  -0.00187108 -7.45915e-05       58.704 
         750      1.33333  -0.00157932 -0.000116241       58.704 
         750      1.61333   -0.0012957  -0.00016003       58.704 
         750         1.92 -0.000988596 -0.000203481       58.704 
         750      2.25333  -0.00064601 -0.000244528       58.704 
         750      2.61333 -0.000275684 -0.000280363       58.704 
         750            3  0.000101781 -0.000308655       58.704 
         800            0            0            0      48.2136 
         800     0.013333  0.000507733 -6.79052e-07      48.2136 
         800     0.053333  0.000719598 -1.01747e-05      48.2136 
         800         0.12   0.00156937 -4.58015e-05      48.2136 
         800     0.213332    0.0030294 -0.000121673      48.2136 
         800     0.333332   0.00458765 -0.000236944      48.2136 
         800         0.48   0.00567339 -0.000377331      48.2136 
         800     0.653331   0.00608857 -0.000528534      48.2136 
         800     0.853332   0.00594924  -0.00068606      48.2136 
         800         1.08    0.0054199 -0.000852191      48.2136 
         800      1.33333   0.00468309  -0.00102442      48.2136 
         800      1.61333   0.00396647  -0.00119151      48.2136 
         800         1.92   0.00334721  -0.00134161      48.2135 
         800      2.25333   0.00271291  -0.00146879      48.2135 
         800      2.61333   0.00201719  -0.00156626      48.2135 
         800            3   0.00129638  -0.00162635      48.2134 
         850            0           -0           -0      37.7227 
         850     0.013333  0.000940855  5.53243e-07      37.7227 
         850     0.053333   0.00188373   8.7709e-06      37.7227 
         850         0.12   0.00260606  4.27369e-05      37.7227 
         850     0.213332   0.00250051  0.000124119      37.7227 
         850     0.333332   0.00165625  0.000264474      37.7227 
         850         0.48  0.000663483  0.000458379      37.7227 
         850     0.653331  4.72906e-05  0.000691496      37.7227 
         850     0.853332 -1.92495e-05  0.000952314      37.7227 
         850         1.08  0.000346635   0.00123239      37.7227 
         850      1.33333  0.000803613   0.00151706      37.7227 
         850      1.61333  0.000993773   0.00178545      37.7227 
         850         1.92  0.000920119   0.00202432      37.7227 
         850      2.25333  0.000803897   0.00222859      37.7227 
         850      2.61333  0.000716565   0.00238903      37.7227 
         850            3  0.000625953   0.00249381      37.7227 
         900            0            0            0      27.2357 
         900     0.013333  6.92163e-05 -2.39102e-07      27.2357 
         900     0.053333 -0.000995821 -4.11215e-06      27.2357 
         900         0.12  -0.00201142 -2.20254e-05      27.2357 
         900     0.213332  -0.00243605 -6.96255e-05      27.2357 
         900     0.333332  -0.00218809 -0.000158547      27.2357 
         900         0.48  -0.00165507 -0.000288206      27.2357 
         900     0.653331  -0.00128845 -0.000448699      27.2356 
         900     0.853332  -0.00128785 -0.000629249      27.2356 
         900         1.08   -0.0015506 -0.000819208      27.2356 
         900      1.33333  -0.00173613  -0.00100283      27.2356 
         900      1.61333  -0.00156397  -0.00116367      27.2356 
         900         1.92  -0.00117436  -0.00129863      27.2356 
         900      2.25333 -0.000785817  -0.00141061      27.2357 
         900      2.61333 -0.000432136  -0.00149617      27.2357 
         900            3  -6.6917e-05  -0.00154814      27.2357 
         950            0            0            0      16.7569 
         950     0.013333   0.00101906  1.77564e-07      16.7569 
         950     0.053333   0.00226919  3.32919e-06      16.7569 
         950         0.12    0.0035947  1.96794e-05      16.7569 
         950     0.213332   0.00422483  6.76404e-05      16.7569 
         950     0.333332   0.00392438  0.000164452      16.7569 
         950         0.48   0.00311025  0.000313725      16.7569 
         950     0.653331   0.00240223  0.000504279      16.7569 
         950     0.853332    0.0021254    0.0007194      16.7569 
         950         1.08   0.00217777  0.000942257      16.7569 
         950      1.33333    0.0021836   0.00115469      16.7569 
         950      1.61333    0.0018879   0.00134275      16.7569 
         950         1.92   0.00146873   0.00150656      16.7569 
         950      2.25333   0.00110625   0.00164897      16.7568 
         950      2.61333  0.000801077   0.00176473      16.7568 
         950            3  0.000497454   0.00184429      16.7568 
        1000            0  3.34922e-19  2.95789e-24      6.27916 
        1000     0.013333 -0.000153634  7.32399e-07      6.27916 
        1000     0.053333  -0.00213308  1.02741e-05      6.27916 
        1000         0.12  -0.00510196  4.20652e-05      6.27916 
        1000     0.213332  -0.00826451  9.82206e-05      6.27916 
        1000     0.333332   -0.0106001  0.000161947      6.27916 
        1000         0.48   -0.0116208  0.000209411      6.27916 
        1000     0.653331   -0.0116142  0.000228408      6.27916 
        1000     0.853332    -0.011136  0.000225118      6.27915 
        1000         1.08   -0.0104293  0.000217782      6.27915 
        1000      1.33333  -0.00939633  0.000224558      6.27915 
        1000      1.61333  -0.00804254  0.000249738      6.27916 
        1000         1.92  -0.00666879   0.00028073      6.27918 
        1000      2.25333  -0.00533294  0.000306687      6.27921 
        1000      2.61333  -0.00394672  0.000326141      6.27927 
        1000            3  -0.00246319  0.000340296      6.27935 
