Variables = x, y, u, v, p

Zone, I=416, F=POINT
         -50            0            0            0     -89.3485 
         -50     0.013333  7.65274e-06 -8.41094e-09     -89.3485 
         -50     0.053333 -2.26471e-06  4.13493e-08     -89.3485 
         -50         0.12 -1.65711e-05  1.85087e-07     -89.3485 
         -50     0.213332 -2.80657e-05  3.75216e-07     -89.3484 
         -50     0.333332 -3.57196e-05  2.85877e-07     -89.3484 
         -50         0.48 -4.01018e-05 -7.91673e-08     -89.3483 
         -50     0.653331 -4.06053e-05 -4.89293e-07     -89.3482 
         -50     0.853332 -3.54637e-05 -3.32108e-07      -89.348 
         -50         1.08 -2.54704e-05 -6.04858e-07     -89.3478 
         -50      1.33333 -1.16846e-05  -3.6294e-09     -89.3474 
         -50      1.61333   7.1706e-06  3.28579e-07     -89.3469 
         -50         1.92  2.79588e-05  1.15421e-06     -89.3463 
         -50      2.25333  4.13209e-05  2.43792e-06     -89.3455 
         -50      2.61333  4.80823e-05  5.04893e-06     -89.3445 
         -50            3   5.0931e-05  6.79032e-06     -89.3432 
         -25            0           -0           -0     -86.9281 
         -25     0.013333  1.39793e-05 -4.53068e-09     -86.9281 
         -25     0.053333  2.44158e-05 -2.24857e-08     -86.9281 
         -25         0.12  3.56982e-05 -4.48195e-08     -86.9281 
         -25     0.213332  4.42067e-05  3.82725e-08     -86.9281 
         -25     0.333332  4.64622e-05  4.43344e-07     -86.9281 
         -25         0.48  4.50427e-05  1.29523e-06      -86.928 
         -25     0.653331   4.3426e-05   2.5399e-06      -86.928 
         -25     0.853332  4.08461e-05  4.01964e-06      -86.928 
         -25         1.08  3.41684e-05  5.35693e-06     -86.9279 
         -25      1.33333    2.393e-05  6.48517e-06     -86.9278 
         -25      1.61333  1.25259e-05  7.29447e-06     -86.9277 
         -25         1.92  4.65016e-06  7.60017e-06     -86.9275 
         -25      2.25333   -2.026e-06  7.46036e-06     -86.9273 
         -25      2.61333 -8.08435e-06   6.2025e-06      -86.927 
         -25            3 -1.09412e-05  3.38346e-06     -86.9267 
           0            0  6.03601e-16 -3.53292e-16     -84.6641 
           0     0.013333  0.000114996 -3.17472e-05     -84.6662 
           0     0.053333  8.08564e-05 -2.20208e-05     -84.6701 
           0         0.12  0.000105481 -9.18654e-06     -84.6743 
           0     0.213332  0.000131184 -9.00146e-06     -84.6786 
           0     0.333332  0.000144531 -8.52875e-06      -84.683 
           0         0.48   0.00014935  -7.2923e-06     -84.6873 
           0     0.653331  0.000147967 -5.60211e-06     -84.6916 
           0     0.853332  0.000135779 -3.90288e-06     -84.6956 
           0         1.08  0.000111752 -2.41558e-06     -84.6995 
           0      1.33333   8.2531e-05 -1.14195e-06     -84.7032 
           0      1.61333  5.16702e-05  7.08096e-08     -84.7068 
           0         1.92  1.97862e-05  9.96607e-07     -84.7101 
           0      2.25333 -6.37191e-06  1.59008e-06     -84.7133 
           0      2.61333 -2.33633e-05   1.4848e-06     -84.7163 
           0            3  -3.3074e-05   3.0829e-07     -84.7192 
          20            0  3.85865e-05  4.32363e-05     -83.1163 
          20     0.013333  3.49694e-05  4.37809e-05     -83.1163 
          20     0.053333  2.33952e-05  4.54006e-05     -83.1163 
          20         0.12  2.05733e-06  4.80905e-05     -83.1162 
          20     0.213332 -2.98661e-05  5.20022e-05     -83.1162 
          20     0.333332 -6.73393e-05  5.76531e-05     -83.1162 
          20         0.48 -9.26667e-05  6.59118e-05     -83.1161 
          20     0.653331 -9.89728e-05   7.6511e-05      -83.116 
          20     0.853332 -9.10919e-05  8.77682e-05     -83.1159 
          20         1.08  -8.1118e-05  9.67152e-05     -83.1158 
          20      1.33333  -7.2068e-05  0.000101883     -83.1157 
          20      1.61333 -6.05633e-05  0.000102542     -83.1155 
          20         1.92 -4.90841e-05  9.82457e-05     -83.1153 
          20      2.25333 -3.24158e-05  9.02434e-05      -83.115 
          20      2.61333 -1.36822e-05  7.92514e-05     -83.1147 
          20            3 -2.45507e-07   6.6798e-05     -83.1144 
          40            0            0            0     -81.4702 
          40     0.013333 -4.13931e-05  2.61626e-07     -81.4702 
          40     0.053333 -0.000222758  3.61572e-06     -81.4702 
          40         0.12 -0.000528048  1.41062e-05     -81.4701 
          40     0.213332 -0.000830859  3.11391e-05     -81.4701 
          40     0.333332  -0.00100884  5.02295e-05     -81.4701 
          40         0.48  -0.00103704  7.02931e-05     -81.4701 
          40     0.653331 -0.000970409  9.35091e-05     -81.4701 
          40     0.853332 -0.000899069  0.000116534     -81.4701 
          40         1.08 -0.000760999  0.000136726       -81.47 
          40      1.33333 -0.000525627  0.000154849       -81.47 
          40      1.61333 -0.000272536  0.000166817     -81.4699 
          40         1.92 -3.64378e-05  0.000170602     -81.4697 
          40      2.25333  0.000147226  0.000165792     -81.4696 
          40      2.61333  0.000257211  0.000153837     -81.4694 
          40            3  0.000298132  0.000138978     -81.4691 
          60            0            0            0      -79.805 
          60     0.013333 -5.04231e-05   8.0919e-08      -79.805 
          60     0.053333  -0.00021247  9.41969e-07      -79.805 
          60         0.12 -0.000410318   2.6411e-06      -79.805 
          60     0.213332 -0.000553669  2.91594e-06      -79.805 
          60     0.333332 -0.000622637 -7.01092e-07      -79.805 
          60         0.48 -0.000667003 -8.15925e-06      -79.805 
          60     0.653331 -0.000712308 -1.62959e-05      -79.805 
          60     0.853332 -0.000697599 -1.85853e-05     -79.8049 
          60         1.08 -0.000572374 -1.12399e-05     -79.8049 
          60      1.33333 -0.000397405  2.14109e-06     -79.8049 
          60      1.61333 -0.000224957  1.55659e-05     -79.8049 
          60         1.92 -6.20967e-05   2.6998e-05     -79.8049 
          60      2.25333  7.42976e-05  3.60669e-05     -79.8049 
          60      2.61333  0.000165769  4.15985e-05     -79.8048 
          60            3  0.000206381  4.46623e-05     -79.8048 
          80            0           -0           -0     -78.1536 
          80     0.013333   1.2177e-05 -1.03876e-07     -78.1536 
          80     0.053333  4.60342e-05 -1.53413e-06     -78.1536 
          80         0.12   0.00014273 -6.64516e-06     -78.1536 
          80     0.213332  0.000280356 -1.65058e-05     -78.1536 
          80     0.333332  0.000394031 -2.95826e-05     -78.1536 
          80         0.48  0.000445368 -4.38161e-05     -78.1536 
          80     0.653331  0.000425394 -5.88948e-05     -78.1536 
          80     0.853332  0.000346232 -7.44739e-05     -78.1536 
          80         1.08  0.000271439 -8.69185e-05     -78.1535 
          80      1.33333   0.00022802 -9.36758e-05     -78.1535 
          80      1.61333  0.000169742 -9.64258e-05     -78.1535 
          80         1.92   9.6419e-05 -9.54956e-05     -78.1535 
          80      2.25333  2.53288e-05 -9.10495e-05     -78.1535 
          80      2.61333 -2.97507e-05  -8.3091e-05     -78.1535 
          80            3 -6.00303e-05 -7.20101e-05     -78.1535 
         100            0           -0           -0     -76.5063 
         100     0.013333  3.23811e-05 -6.33709e-08     -76.5063 
         100     0.053333  9.62395e-05 -7.81671e-07     -76.5063 
         100         0.12  0.000166539 -2.46493e-06     -76.5063 
         100     0.213332  0.000193642 -3.64096e-06     -76.5063 
         100     0.333332   0.00016564  -2.4516e-06     -76.5063 
         100         0.48  0.000117502  6.57199e-07     -76.5063 
         100     0.653331  6.38926e-05  2.81625e-06     -76.5063 
         100     0.853332 -9.99323e-06  1.33548e-06     -76.5063 
         100         1.08 -6.99511e-05 -2.23156e-06     -76.5063 
         100      1.33333 -7.46934e-05 -4.65689e-06     -76.5063 
         100      1.61333 -6.82904e-05 -6.13164e-06     -76.5063 
         100         1.92  -6.5588e-05 -7.47445e-06     -76.5063 
         100      2.25333 -6.04684e-05 -8.65981e-06     -76.5063 
         100      2.61333 -5.18439e-05 -9.12854e-06     -76.5063 
         100            3 -4.09377e-05 -9.22911e-06     -76.5063 
         150            0            0            0     -72.3928 
         150     0.013333 -7.25567e-05  1.47249e-07     -72.3928 
         150     0.053333  -0.00031294  1.97222e-06     -72.3928 
         150         0.12 -0.000659208  7.42074e-06     -72.3928 
         150     0.213332 -0.000986106  1.55678e-05     -72.3928 
         150     0.333332  -0.00119398  2.28745e-05     -72.3928 
         150         0.48  -0.00128148  2.65448e-05     -72.3928 
         150     0.653331  -0.00129389  2.68807e-05     -72.3928 
         150     0.853332  -0.00122698  2.77124e-05     -72.3928 
         150         1.08  -0.00104597  3.27608e-05     -72.3928 
         150      1.33333 -0.000797067  4.14919e-05     -72.3928 
         150      1.61333 -0.000547011  4.99104e-05     -72.3928 
         150         1.92 -0.000291613  5.64829e-05     -72.3927 
         150      2.25333 -4.84411e-05  6.14881e-05     -72.3927 
         150      2.61333  0.000151318  6.35548e-05     -72.3927 
         150            3  0.000282206   6.2926e-05     -72.3927 
         200            0           -0           -0     -68.2788 
         200     0.013333  0.000187228  2.17482e-07     -68.2788 
         200     0.053333  0.000574659    3.581e-06     -68.2788 
         200         0.12  0.000846888  1.80801e-05     -68.2788 
         200     0.213332  0.000794704  5.35607e-05     -68.2788 
         200     0.333332  0.000499448  0.000114669     -68.2788 
         200         0.48  0.000201079  0.000198185     -68.2788 
         200     0.653331  5.86984e-05  0.000297413     -68.2788 
         200     0.853332   6.8617e-05  0.000405017     -68.2788 
         200         1.08   0.00011109  0.000511934     -68.2788 
         200      1.33333  9.69952e-05  0.000608738     -68.2788 
         200      1.61333   5.1915e-05  0.000689089     -68.2788 
         200         1.92  9.87387e-06    0.0007471     -68.2788 
         200      2.25333 -2.54388e-05  0.000776269     -68.2788 
         200      2.61333 -5.34382e-05  0.000774808     -68.2788 
         200            3 -7.06481e-05  0.000745342     -68.2789 
         250            0           -0           -0     -64.1651 
         250     0.013333  6.32161e-05  1.08345e-07     -64.1651 
         250     0.053333  0.000176903  1.63972e-06     -64.1651 
         250         0.12  0.000251868  7.44285e-06     -64.1651 
         250     0.213332  0.000243917   1.9908e-05     -64.1651 
         250     0.333332  0.000184076  3.93506e-05     -64.1651 
         250         0.48   0.00012638  6.48417e-05     -64.1651 
         250     0.653331  0.000107744  9.60226e-05     -64.1651 
         250     0.853332   0.00014599  0.000132872     -64.1651 
         250         1.08   0.00020856  0.000172808     -64.1651 
         250      1.33333  0.000221946  0.000209968     -64.1651 
         250      1.61333  0.000183264  0.000240102     -64.1651 
         250         1.92  0.000136929  0.000261974     -64.1651 
         250      2.25333  8.90041e-05  0.000273756     -64.1651 
         250      2.61333  4.35733e-05  0.000274626     -64.1651 
         250            3  8.60122e-06  0.000265284     -64.1651 
         300            0           -0           -0     -60.0513 
         300     0.013333 -0.000141266 -3.21552e-07     -60.0513 
         300     0.053333 -0.000422825 -5.10825e-06     -60.0513 
         300         0.12 -0.000490206 -2.47438e-05     -60.0513 
         300     0.213332 -0.000165732  -7.0563e-05     -60.0513 
         300     0.333332  0.000374632  -0.00014609     -60.0513 
         300         0.48  0.000815239 -0.000244885     -60.0513 
         300     0.653331  0.000990931 -0.000357436     -60.0513 
         300     0.853332   0.00093536 -0.000476154     -60.0513 
         300         1.08   0.00078888 -0.000593364     -60.0513 
         300      1.33333  0.000667072 -0.000700684     -60.0513 
         300      1.61333  0.000561321 -0.000792199     -60.0513 
         300         1.92  0.000432313  -0.00086267     -60.0513 
         300      2.25333  0.000285845 -0.000905208     -60.0513 
         300      2.61333  0.000139618 -0.000915687     -60.0513 
         300            3  1.21541e-05 -0.000894052     -60.0513 
         350            0            0            0     -55.9388 
         350     0.013333 -0.000467818   8.6958e-08     -55.9388 
         350     0.053333  -0.00169535  4.67234e-07     -55.9388 
         350         0.12  -0.00311028  -3.2851e-06     -55.9388 
         350     0.213332  -0.00406276 -2.50318e-05     -55.9388 
         350     0.333332   -0.0042949 -8.07769e-05     -55.9388 
         350         0.48  -0.00406469 -0.000176332     -55.9388 
         350     0.653331  -0.00377328 -0.000304807     -55.9388 
         350     0.853332  -0.00356909  -0.00045141     -55.9388 
         350         1.08  -0.00329016 -0.000597673     -55.9388 
         350      1.33333  -0.00277663 -0.000728434     -55.9388 
         350      1.61333  -0.00212715  -0.00083952     -55.9388 
         350         1.92  -0.00145519 -0.000929249     -55.9388 
         350      2.25333 -0.000767855 -0.000989941     -55.9387 
         350      2.61333 -0.000107751  -0.00101647     -55.9387 
         350            3  0.000446071  -0.00100703     -55.9386 
         400            0            0            0     -51.8238 
         400     0.013333  0.000124771  1.30773e-07     -51.8238 
         400     0.053333  0.000394963  1.99681e-06     -51.8238 
         400         0.12  0.000647368  9.31087e-06     -51.8238 
         400     0.213332  0.000754047  2.61738e-05     -51.8238 
         400     0.333332  0.000701189  5.52191e-05     -51.8238 
         400         0.48  0.000563033  9.70086e-05     -51.8238 
         400     0.653331  0.000429431  0.000150835     -51.8238 
         400     0.853332  0.000368446  0.000216086     -51.8238 
         400         1.08  0.000407039  0.000291909     -51.8238 
         400      1.33333  0.000477735  0.000373486     -51.8238 
         400      1.61333  0.000469281  0.000451403     -51.8238 
         400         1.92  0.000395233  0.000518557     -51.8238 
         400      2.25333   0.00029939  0.000570643     -51.8238 
         400      2.61333  0.000197374  0.000603689     -51.8238 
         400            3    9.652e-05  0.000615338     -51.8238 
         450            0            0            0     -47.7102 
         450     0.013333 -0.000127449 -3.07019e-07     -47.7102 
         450     0.053333 -0.000379711 -4.83675e-06     -47.7102 
         450         0.12     -0.00043 -2.32118e-05     -47.7102 
         450     0.213332 -0.000116897 -6.56838e-05     -47.7102 
         450     0.333332  0.000389596  -0.00013517     -47.7102 
         450         0.48  0.000784632 -0.000225418     -47.7102 
         450     0.653331  0.000907092 -0.000327594     -47.7102 
         450     0.853332  0.000792178 -0.000435321     -47.7102 
         450         1.08  0.000591142 -0.000542181     -47.7102 
         450      1.33333  0.000457824 -0.000640039     -47.7102 
         450      1.61333  0.000397351 -0.000723728     -47.7102 
         450         1.92  0.000325174 -0.000791159     -47.7102 
         450      2.25333  0.000233056 -0.000837826     -47.7102 
         450      2.61333   0.00013401 -0.000859224     -47.7102 
         450            3  4.01017e-05 -0.000852937     -47.7103 
         500            0           -0           -0     -43.5984 
         500     0.013333 -0.000336909  5.15267e-07     -43.5984 
         500     0.053333  -0.00136337  7.10633e-06     -43.5984 
         500         0.12  -0.00288087  2.78877e-05     -43.5984 
         500     0.213332  -0.00437475  6.11823e-05     -43.5984 
         500     0.333332  -0.00531993  9.31417e-05     -43.5984 
         500         0.48  -0.00560453  0.000109787     -43.5984 
         500     0.653331  -0.00548322  0.000108894     -43.5984 
         500     0.853332  -0.00517018  0.000100286     -43.5984 
         500         1.08   -0.0046456  9.77472e-05     -43.5984 
         500      1.33333  -0.00389425  0.000106814     -43.5984 
         500      1.61333  -0.00308505  0.000120411     -43.5983 
         500         1.92  -0.00230025  0.000130807     -43.5983 
         500      2.25333  -0.00148628  0.000137249     -43.5983 
         500      2.61333 -0.000655644  0.000139824     -43.5982 
         500            3  0.000111521  0.000138259     -43.5981 
         550            0  1.71469e-19  3.46454e-27     -39.4827 
         550     0.013333    0.0004662 -1.41822e-07     -39.4827 
         550     0.053333   0.00168113 -1.48475e-06     -39.4827 
         550         0.12   0.00317821 -2.44969e-06     -39.4827 
         550     0.213332    0.0043419  6.81449e-06     -39.4827 
         550     0.333332   0.00481265  4.07193e-05     -39.4827 
         550         0.48    0.0047125  0.000107674     -39.4827 
         550     0.653331   0.00441257  0.000205093     -39.4827 
         550     0.853332   0.00415637  0.000322737     -39.4827 
         550         1.08   0.00390294  0.000446422     -39.4827 
         550      1.33333   0.00347366   0.00056209     -39.4827 
         550      1.61333   0.00284963  0.000662576     -39.4828 
         550         1.92   0.00217761  0.000748231     -39.4828 
         550      2.25333   0.00148132  0.000816447     -39.4828 
         550      2.61333  0.000770189  0.000862012     -39.4828 
         550            3  9.22172e-05  0.000880675     -39.4829 
         600            0            0            0     -35.3735 
         600     0.013333 -0.000345036  2.05567e-07     -35.3735 
         600     0.053333  -0.00131897  2.61389e-06     -35.3735 
         600         0.12  -0.00261638  8.68841e-06     -35.3735 
         600     0.213332  -0.00377414  1.34174e-05     -35.3735 
         600     0.333332  -0.00444569   6.2729e-06     -35.3735 
         600         0.48  -0.00462805  -2.0919e-05     -35.3735 
         600     0.653331  -0.00455892  -6.8418e-05     -35.3735 
         600     0.853332  -0.00442702 -0.000129465     -35.3735 
         600         1.08  -0.00421297 -0.000193233     -35.3735 
         600      1.33333  -0.00379724 -0.000249698     -35.3735 
         600      1.61333  -0.00319179 -0.000295291     -35.3735 
         600         1.92  -0.00252668 -0.000332507     -35.3734 
         600      2.25333  -0.00182352 -0.000361553     -35.3734 
         600      2.61333  -0.00108974 -0.000380434     -35.3734 
         600            3 -0.000368355 -0.000387289     -35.3733 
         650            0            0            0     -31.2599 
         650     0.013333  9.17039e-05 -4.29813e-09     -31.2599 
         650     0.053333  0.000299746  1.13197e-07     -31.2599 
         650         0.12  0.000516362  1.63425e-06     -31.2599 
         650     0.213332  0.000623457  7.62195e-06     -31.2599 
         650     0.333332  0.000596646  2.08659e-05     -31.2599 
         650         0.48  0.000520524   4.1231e-05     -31.2599 
         650     0.653331  0.000488106  6.58856e-05     -31.2599 
         650     0.853332  0.000517368  9.12162e-05     -31.2599 
         650         1.08  0.000544379  0.000113154     -31.2599 
         650      1.33333  0.000484685  0.000127598     -31.2599 
         650      1.61333  0.000345678  0.000133544     -31.2599 
         650         1.92  0.000222348  0.000134266     -31.2599 
         650      2.25333  0.000122892  0.000131408     -31.2599 
         650      2.61333  3.28928e-05  0.000125129     -31.2599 
         650            3 -4.93766e-05  0.000115152     -31.2599 
         700            0 -7.63908e-20  4.86697e-27     -27.1477 
         700     0.013333 -0.000223729 -9.72557e-08     -27.1477 
         700     0.053333 -0.000792661 -1.71673e-06     -27.1477 
         700         0.12  -0.00138394 -9.50717e-06     -27.1477 
         700     0.213332  -0.00168165 -3.11716e-05     -27.1477 
         700     0.333332  -0.00158896 -7.37429e-05     -27.1477 
         700         0.48  -0.00125874 -0.000139225     -27.1477 
         700     0.653331 -0.000923056 -0.000224375     -27.1477 
         700     0.853332  -0.00072136 -0.000323931     -27.1477 
         700         1.08 -0.000656432 -0.000432373     -27.1477 
         700      1.33333  -0.00063194  -0.00054317     -27.1477 
         700      1.61333 -0.000553698 -0.000649303     -27.1477 
         700         1.92 -0.000426411 -0.000746238     -27.1477 
         700      2.25333 -0.000288078 -0.000829758     -27.1477 
         700      2.61333 -0.000150902 -0.000894973     -27.1476 
         700            3 -1.55966e-05 -0.000937012     -27.1476 
         750            0            0            0     -23.0329 
         750     0.013333  9.10704e-05 -2.48319e-07     -23.0329 
         750     0.053333  0.000389225 -3.63387e-06     -23.0329 
         750         0.12  0.000957301 -1.58236e-05     -23.0329 
         750     0.213332   0.00171209 -4.05252e-05     -23.0329 
         750     0.333332   0.00243406 -7.61739e-05     -23.0329 
         750         0.48   0.00293794 -0.000117433     -23.0329 
         750     0.653331   0.00318733 -0.000159653     -23.0329 
         750     0.853332   0.00323989 -0.000201812     -23.0329 
         750         1.08   0.00313152 -0.000246223     -23.0329 
         750      1.33333   0.00286327 -0.000295238     -23.0329 
         750      1.61333   0.00247817 -0.000347741     -23.0329 
         750         1.92   0.00205906 -0.000399208     -23.0329 
         750      2.25333   0.00161529 -0.000445096      -23.033 
         750      2.61333   0.00114037 -0.000482547      -23.033 
         750            3  0.000647978 -0.000509138      -23.033 
         800            0            0            0     -18.9191 
         800     0.013333  0.000173326 -5.54576e-08     -18.9191 
         800     0.053333  0.000626878 -6.92057e-07     -18.9191 
         800         0.12   0.00123394 -2.16717e-06     -18.9191 
         800     0.213332   0.00179936 -2.60422e-06     -18.9191 
         800     0.333332   0.00216257  1.95515e-06     -18.9191 
         800         0.48   0.00229462  1.51485e-05     -18.9191 
         800     0.653331    0.0022799  3.80736e-05     -18.9191 
         800     0.853332   0.00221676  6.91872e-05     -18.9191 
         800         1.08   0.00214059  0.000105405     -18.9191 
         800      1.33333   0.00202234  0.000143134     -18.9191 
         800      1.61333   0.00182525    0.0001791     -18.9191 
         800         1.92   0.00155662  0.000211651     -18.9191 
         800      2.25333   0.00124831  0.000239789     -18.9192 
         800      2.61333   0.00091385   0.00026246     -18.9192 
         800            3  0.000561437  0.000278321     -18.9192 
         850            0           -0           -0     -14.8063 
         850     0.013333  2.05584e-05   1.2922e-07     -14.8063 
         850     0.053333  1.52725e-05  1.93189e-06     -14.8063 
         850         0.12 -8.41206e-05  8.66222e-06     -14.8063 
         850     0.213332 -0.000282133  2.28898e-05     -14.8063 
         850     0.333332 -0.000492825  4.43292e-05     -14.8063 
         850         0.48 -0.000619678  7.03264e-05     -14.8063 
         850     0.653331 -0.000634768  9.85355e-05     -14.8063 
         850     0.853332  -0.00056198   0.00012866     -14.8063 
         850         1.08 -0.000428733  0.000161526     -14.8063 
         850      1.33333 -0.000272921  0.000196476     -14.8063 
         850      1.61333 -0.000152126  0.000230488     -14.8063 
         850         1.92 -8.54947e-05  0.000260815     -14.8063 
         850      2.25333 -3.61231e-05  0.000286086     -14.8063 
         850      2.61333  1.47763e-05  0.000305482     -14.8063 
         850            3  6.35149e-05  0.000317807     -14.8063 
         900            0            0            0     -10.6933 
         900     0.013333 -0.000140984 -1.38968e-07     -10.6933 
         900     0.053333 -0.000479192 -2.25707e-06     -10.6933 
         900         0.12 -0.000753624 -1.13777e-05     -10.6933 
         900     0.213332 -0.000745804  -3.4363e-05     -10.6933 
         900     0.333332 -0.000443462 -7.61723e-05     -10.6933 
         900         0.48  -2.4119e-05 -0.000136721     -10.6933 
         900     0.653331  0.000312847 -0.000211729     -10.6933 
         900     0.853332  0.000476788  -0.00029624     -10.6933 
         900         1.08  0.000485803 -0.000386465     -10.6933 
         900      1.33333  0.000419087 -0.000478697     -10.6933 
         900      1.61333  0.000361962 -0.000568286     -10.6933 
         900         1.92  0.000338833 -0.000651285     -10.6933 
         900      2.25333  0.000315279 -0.000725139     -10.6933 
         900      2.61333  0.000276384 -0.000786137     -10.6933 
         900            3  0.000227986 -0.000830131     -10.6933 
         950            0            0            0     -6.57958 
         950     0.013333   0.00013864  -3.3287e-07     -6.57958 
         950     0.053333  0.000594774 -4.89232e-06     -6.57958 
         950         0.12   0.00144242 -2.14313e-05     -6.57958 
         950     0.213332   0.00254659 -5.50908e-05     -6.57958 
         950     0.333332   0.00356888 -0.000103341     -6.57958 
         950         0.48   0.00421876  -0.00015775     -6.57958 
         950     0.653331   0.00444606 -0.000210787     -6.57958 
         950     0.853332   0.00437351 -0.000260539     -6.57958 
         950         1.08   0.00411548 -0.000309863     -6.57958 
         950      1.33333    0.0037221 -0.000361616     -6.57958 
         950      1.61333   0.00324514 -0.000414962     -6.57958 
         950         1.92   0.00275111  -0.00046629     -6.57959 
         950      2.25333   0.00223854 -0.000511299      -6.5796 
         950      2.61333    0.0016884 -0.000547895     -6.57962 
         950            3   0.00110141 -0.000574049     -6.57965 
        1000            0  1.68401e-19 -2.49803e-24       -2.467 
        1000     0.013333  0.000456884 -1.51288e-08       -2.467 
        1000     0.053333   0.00163193  2.64207e-07       -2.467 
        1000         0.12   0.00305445  4.09979e-06       -2.467 
        1000     0.213332   0.00414188  2.05055e-05       -2.467 
        1000     0.333332   0.00455055  6.12722e-05       -2.467 
        1000         0.48   0.00437781  0.000133522     -2.46699 
        1000     0.653331   0.00398831   0.00023562     -2.46699 
        1000     0.853332   0.00368198  0.000359711     -2.46699 
        1000         1.08   0.00351772  0.000495873     -2.46699 
        1000      1.33333   0.00335445  0.000633506     -2.46699 
        1000      1.61333   0.00304331  0.000763497     -2.46699 
        1000         1.92   0.00260155  0.000881544       -2.467 
        1000      2.25333   0.00212165  0.000987405     -2.46701 
        1000      2.61333   0.00162478   0.00107644     -2.46703 
        1000            3   0.00109839   0.00114251     -2.46706 
