Variables = x, y, u, v, p

Zone, I=416, F=POINT
         -50            0            0            0      72.4225 
         -50     0.013333  7.48983e-05  1.92665e-08      72.4225 
         -50     0.053333  7.24429e-05  1.59511e-07      72.4225 
         -50         0.12  6.92141e-05  6.54584e-07      72.4225 
         -50     0.213332  6.23943e-05  1.73137e-06      72.4225 
         -50     0.333332   5.4606e-05  3.73988e-06      72.4224 
         -50         0.48  4.98463e-05  5.78672e-06      72.4224 
         -50     0.653331  5.02705e-05  8.38571e-06      72.4223 
         -50     0.853332  5.43528e-05  1.10408e-05      72.4221 
         -50         1.08  5.73074e-05   1.3963e-05      72.4219 
         -50      1.33333   5.8435e-05  1.57558e-05      72.4217 
         -50      1.61333  5.93634e-05  1.67607e-05      72.4213 
         -50         1.92  6.08042e-05   1.7909e-05      72.4208 
         -50      2.25333  5.75977e-05  1.64867e-05      72.4201 
         -50      2.61333  5.06394e-05  1.24428e-05      72.4193 
         -50            3  4.67997e-05  8.56487e-06      72.4183 
         -25            0           -0           -0      70.4656 
         -25     0.013333  5.55276e-05  1.14421e-08      70.4656 
         -25     0.053333  3.41423e-05  9.37531e-08      70.4656 
         -25         0.12  1.28593e-05  2.59993e-07      70.4656 
         -25     0.213332 -6.01098e-07  2.94418e-07      70.4656 
         -25     0.333332 -4.54572e-06 -1.08767e-07      70.4655 
         -25         0.48 -3.56113e-06 -9.62722e-07      70.4655 
         -25     0.653331  -4.3509e-07  -2.1839e-06      70.4655 
         -25     0.853332  6.45934e-06  -3.4049e-06      70.4655 
         -25         1.08    1.736e-05 -4.35795e-06      70.4654 
         -25      1.33333  2.95676e-05 -5.14621e-06      70.4653 
         -25      1.61333  4.33228e-05 -5.42168e-06      70.4652 
         -25         1.92  5.56893e-05 -5.75517e-06      70.4651 
         -25      2.25333  6.57905e-05 -4.95301e-06      70.4649 
         -25      2.61333  7.49322e-05 -2.94419e-06      70.4647 
         -25            3  8.02025e-05 -1.67461e-06      70.4644 
           0            0  6.63985e-16 -4.64302e-16      68.6337 
           0     0.013333   0.00013621 -9.46348e-05      68.6356 
           0     0.053333  9.80241e-05 -4.75859e-05      68.6387 
           0         0.12  8.21681e-05  -3.2872e-05       68.642 
           0     0.213332   7.4305e-05 -2.49518e-05      68.6456 
           0     0.333332  6.66206e-05   -2.039e-05      68.6491 
           0         0.48  5.72769e-05 -1.71755e-05      68.6526 
           0     0.653331  5.00085e-05 -1.48331e-05       68.656 
           0     0.853332  4.61368e-05 -1.30208e-05      68.6593 
           0         1.08  4.54219e-05 -1.14843e-05      68.6625 
           0      1.33333   4.5776e-05 -1.01315e-05      68.6655 
           0      1.61333   4.5325e-05 -8.92064e-06      68.6684 
           0         1.92  4.37203e-05 -7.93222e-06      68.6711 
           0      2.25333  4.09742e-05 -7.14655e-06      68.6737 
           0      2.61333  3.66798e-05 -6.41368e-06      68.6761 
           0            3  3.63424e-05  -3.6615e-06      68.6784 
          20            0  7.74993e-05 -2.47755e-05      67.3812 
          20     0.013333  9.13295e-05 -2.57496e-05      67.3812 
          20     0.053333   0.00013315 -2.88275e-05      67.3812 
          20         0.12  0.000202362 -3.45364e-05      67.3812 
          20     0.213332  0.000292229 -4.38949e-05      67.3811 
          20     0.333332  0.000383185 -5.84642e-05      67.3811 
          20         0.48  0.000442431 -7.94189e-05      67.3811 
          20     0.653331  0.000458229 -0.000106052       67.381 
          20     0.853332  0.000437299 -0.000135642      67.3809 
          20         1.08  0.000398341 -0.000164091      67.3808 
          20      1.33333  0.000350669 -0.000188134      67.3807 
          20      1.61333  0.000291677 -0.000205208      67.3806 
          20         1.92  0.000227327   -0.0002132      67.3804 
          20      2.25333  0.000166536 -0.000211996      67.3802 
          20      2.61333  0.000115327 -0.000203552      67.3799 
          20            3  7.71423e-05 -0.000191054      67.3797 
          40            0            0            0      66.0482 
          40     0.013333 -0.000120531 -9.36398e-09      66.0482 
          40     0.053333 -0.000555995  -6.1722e-07      66.0482 
          40         0.12 -0.000985194 -5.55745e-06      66.0482 
          40     0.213332  -0.00119482 -2.28628e-05      66.0482 
          40     0.333332  -0.00119856 -6.00166e-05      66.0482 
          40         0.48  -0.00113802  -0.00011731      66.0482 
          40     0.653331  -0.00105044 -0.000187207      66.0482 
          40     0.853332 -0.000933992 -0.000264239      66.0481 
          40         1.08 -0.000798284 -0.000345514      66.0481 
          40      1.33333 -0.000581468 -0.000418276      66.0481 
          40      1.61333 -0.000312749 -0.000471767       66.048 
          40         1.92 -4.62296e-05 -0.000500027      66.0479 
          40      2.25333  0.000171366 -0.000501667      66.0478 
          40      2.61333  0.000309264 -0.000481125      66.0477 
          40            3  0.000367998 -0.000443167      66.0476 
          60            0            0            0      64.7001 
          60     0.013333 -0.000142686  1.45968e-07      64.7001 
          60     0.053333 -0.000664208  1.54471e-06      64.7001 
          60         0.12  -0.00124822  2.99087e-06      64.7001 
          60     0.213332   -0.0015999 -3.22851e-06      64.7001 
          60     0.333332  -0.00164747 -2.61489e-05      64.7001 
          60         0.48  -0.00156934 -6.77207e-05      64.7001 
          60     0.653331  -0.00152218  -0.00012071      64.7001 
          60     0.853332  -0.00144438 -0.000170612      64.7001 
          60         1.08  -0.00121774 -0.000207907      64.7001 
          60      1.33333 -0.000873598 -0.000232738      64.7001 
          60      1.61333  -0.00048167 -0.000248489      64.7001 
          60         1.92 -9.56037e-05 -0.000254163      64.7001 
          60      2.25333  0.000221907 -0.000248133      64.7002 
          60      2.61333  0.000428702 -0.000233891      64.7002 
          60            3  0.000519632 -0.000212772      64.7002 
          80            0           -0           -0      63.3635 
          80     0.013333 -9.92944e-05  1.84545e-07      63.3635 
          80     0.053333 -0.000531137  2.28489e-06      63.3635 
          80         0.12  -0.00107408  7.29534e-06      63.3635 
          80     0.213332  -0.00149415  1.08465e-05      63.3635 
          80     0.333332  -0.00167617  5.68739e-06      63.3635 
          80         0.48  -0.00170082 -1.16385e-05      63.3635 
          80     0.653331  -0.00167164 -3.74317e-05      63.3635 
          80     0.853332  -0.00152824 -6.02421e-05      63.3635 
          80         1.08  -0.00117021 -7.00203e-05      63.3635 
          80      1.33333 -0.000746524 -6.90792e-05      63.3635 
          80      1.61333 -0.000401243 -6.65222e-05      63.3635 
          80         1.92 -8.04729e-05  -6.3183e-05      63.3635 
          80      2.25333  0.000199933 -5.70554e-05      63.3635 
          80      2.61333  0.000396605 -5.08445e-05      63.3636 
          80            3  0.000486038 -4.53206e-05      63.3636 
         100            0           -0           -0        62.03 
         100     0.013333  2.24606e-05  2.82494e-07        62.03 
         100     0.053333 -0.000134591   4.0683e-06        62.03 
         100         0.12 -0.000456602  1.71683e-05        62.03 
         100     0.213332 -0.000852558  4.19577e-05        62.03 
         100     0.333332  -0.00115473  7.46968e-05        62.03 
         100         0.48  -0.00128294  0.000109865        62.03 
         100     0.653331  -0.00125159  0.000145441        62.03 
         100     0.853332  -0.00108199  0.000182877        62.03 
         100         1.08 -0.000825035  0.000221038        62.03 
         100      1.33333  -0.00058385    0.0002546        62.03 
         100      1.61333 -0.000371451   0.00027844        62.03 
         100         1.92 -0.000136148  0.000291465        62.03 
         100      2.25333  8.53672e-05  0.000292796        62.03 
         100      2.61333  0.000252767  0.000282329        62.03 
         100            3  0.000350553   0.00026338      62.0301 
         150            0            0            0      58.6984 
         150     0.013333 -0.000146167  2.62225e-07      58.6984 
         150     0.053333 -0.000720139   3.4162e-06      58.6984 
         150         0.12  -0.00148045  1.20748e-05      58.6984 
         150     0.213332   -0.0021213   2.2254e-05      58.6984 
         150     0.333332  -0.00244024  2.48574e-05      58.6984 
         150         0.48  -0.00248615  1.40509e-05      58.6984 
         150     0.653331   -0.0024013 -8.13804e-06      58.6984 
         150     0.853332  -0.00221332 -3.33363e-05      58.6984 
         150         1.08  -0.00187171 -5.43228e-05      58.6984 
         150      1.33333  -0.00142095 -6.91406e-05      58.6984 
         150      1.61333 -0.000947859 -8.06076e-05      58.6984 
         150         1.92 -0.000468458  -8.9149e-05      58.6985 
         150      2.25333 -1.76328e-05 -9.24237e-05      58.6985 
         150      2.61333  0.000346773 -9.22114e-05      58.6985 
         150            3  0.000576954 -8.86216e-05      58.6986 
         200            0           -0           -0      55.3675 
         200     0.013333 -7.04045e-05  -1.8978e-08      55.3675 
         200     0.053333 -0.000378576 -6.04305e-07      55.3675 
         200         0.12 -0.000666545 -4.69635e-06      55.3675 
         200     0.213332 -0.000762389 -1.80485e-05      55.3675 
         200     0.333332 -0.000666448 -4.50846e-05      55.3675 
         200         0.48 -0.000516491 -8.49418e-05      55.3675 
         200     0.653331 -0.000418665 -0.000132705      55.3675 
         200     0.853332 -0.000365126 -0.000182119      55.3675 
         200         1.08 -0.000288321 -0.000227488      55.3675 
         200      1.33333 -0.000173118  -0.00026513      55.3675 
         200      1.61333 -6.13335e-05 -0.000294317      55.3675 
         200         1.92  3.71931e-05 -0.000313608      55.3675 
         200      2.25333  0.000123727 -0.000320158      55.3675 
         200      2.61333  0.000192747 -0.000314069      55.3676 
         200            3  0.000234789 -0.000296777      55.3676 
         250            0           -0           -0      52.0349 
         250     0.013333 -0.000223687 -6.66201e-08      52.0349 
         250     0.053333 -0.000917878 -1.48717e-06      52.0349 
         250         0.12   -0.0016412 -9.75452e-06      52.0349 
         250     0.213332  -0.00204207 -3.48602e-05      52.0349 
         250     0.333332  -0.00206089 -8.50839e-05      52.0349 
         250         0.48   -0.0019049 -0.000161272      52.0349 
         250     0.653331  -0.00178996 -0.000258101      52.0349 
         250     0.853332  -0.00175326 -0.000366444      52.0349 
         250         1.08  -0.00165347 -0.000474025      52.0349 
         250      1.33333  -0.00138561 -0.000569412      52.0349 
         250      1.61333  -0.00102608 -0.000648109      52.0349 
         250         1.92 -0.000647829 -0.000706995       52.035 
         250      2.25333  -0.00026786 -0.000739612       52.035 
         250      2.61333  7.95202e-05 -0.000743925       52.035 
         250            3  0.000347723 -0.000721055       52.035 
         300            0           -0           -0      48.7029 
         300     0.013333   2.6012e-05 -2.13261e-07      48.7029 
         300     0.053333  7.01078e-06 -3.26211e-06      48.7029 
         300         0.12  0.000143516 -1.49809e-05      48.7029 
         300     0.213332  0.000448105 -4.02018e-05      48.7029 
         300     0.333332  0.000771137  -7.8258e-05      48.7029 
         300         0.48  0.000959308 -0.000124026      48.7029 
         300     0.653331  0.000976441  -0.00017304      48.7029 
         300     0.853332  0.000870144 -0.000223116      48.7029 
         300         1.08  0.000724337 -0.000271147      48.7029 
         300      1.33333  0.000607401 -0.000312623      48.7029 
         300      1.61333  0.000503538 -0.000345137      48.7029 
         300         1.92  0.000378818 -0.000367686      48.7029 
         300      2.25333  0.000242822    -0.000378      48.7029 
         300      2.61333  0.000112625 -0.000374888      48.7029 
         300            3  3.76365e-06 -0.000358871      48.7029 
         350            0            0            0      45.3694 
         350     0.013333 -4.00257e-05 -1.97009e-07      45.3694 
         350     0.053333  -0.00024216 -3.01704e-06      45.3694 
         350         0.12 -0.000359733 -1.39191e-05      45.3694 
         350     0.213332 -0.000306901 -3.78098e-05      45.3694 
         350     0.333332 -0.000158327 -7.54035e-05      45.3694 
         350         0.48 -3.62208e-05 -0.000124162      45.3694 
         350     0.653331 -1.04744e-05 -0.000182229      45.3694 
         350     0.853332 -9.85531e-05 -0.000249075      45.3694 
         350         1.08 -0.000239354 -0.000320958      45.3694 
         350      1.33333 -0.000301069 -0.000388947      45.3694 
         350      1.61333  -0.00025847 -0.000446032      45.3694 
         350         1.92 -0.000196513 -0.000490236      45.3694 
         350      2.25333 -0.000131153 -0.000518829      45.3694 
         350      2.61333 -6.32355e-05 -0.000529197      45.3694 
         350            3  3.38762e-07 -0.000520641      45.3694 
         400            0            0            0      42.0359 
         400     0.013333   0.00018923 -3.70058e-08      42.0359 
         400     0.053333  0.000522819 -2.42066e-07      42.0359 
         400         0.12    0.0008918  9.40651e-07      42.0359 
         400     0.213332   0.00109565  8.60399e-06      42.0359 
         400     0.333332   0.00107418  2.82988e-05      42.0359 
         400         0.48  0.000945812  6.07985e-05      42.0359 
         400     0.653331  0.000847462  0.000101269      42.0359 
         400     0.853332  0.000785963  0.000142172      42.0359 
         400         1.08  0.000674239  0.000176872      42.0359 
         400      1.33333  0.000505344  0.000204193      42.0359 
         400      1.61333  0.000359999  0.000227503      42.0359 
         400         1.92  0.000236505  0.000247142      42.0359 
         400      2.25333  0.000115661  0.000260444      42.0359 
         400      2.61333  1.08562e-06  0.000265878      42.0359 
         400            3 -9.30933e-05  0.000262901      42.0359 
         450            0            0            0      38.7027 
         450     0.013333  0.000422672 -3.08694e-07      38.7027 
         450     0.053333   0.00142481 -3.90435e-06      38.7027 
         450         0.12    0.0027234 -1.27872e-05      38.7027 
         450     0.213332   0.00376441 -1.90533e-05      38.7027 
         450     0.333332    0.0041803 -7.48051e-06      38.7027 
         450         0.48   0.00407642  3.11041e-05      38.7027 
         450     0.653331   0.00379412  9.20659e-05      38.7027 
         450     0.853332   0.00348971  0.000160867      38.7027 
         450         1.08   0.00306169  0.000222021      38.7027 
         450      1.33333   0.00247436  0.000270083      38.7027 
         450      1.61333   0.00188683  0.000311081      38.7027 
         450         1.92    0.0013358  0.000348381      38.7027 
         450      2.25333  0.000774291   0.00037789      38.7026 
         450      2.61333  0.000217623  0.000396645      38.7026 
         450            3 -0.000272915  0.000403157      38.7025 
         500            0           -0           -0      35.3676 
         500     0.013333 -0.000135779 -7.61344e-07      35.3676 
         500     0.053333 -0.000410161 -1.16051e-05      35.3676 
         500         0.12 -0.000175826 -5.33723e-05      35.3676 
         500     0.213332  0.000754458 -0.000144796      35.3676 
         500     0.333332   0.00194303 -0.000287608      35.3676 
         500         0.48   0.00280244 -0.000467464      35.3676 
         500     0.653331   0.00308314 -0.000669471      35.3676 
         500     0.853332   0.00284189 -0.000887585      35.3676 
         500         1.08   0.00227347  -0.00111686      35.3676 
         500      1.33333     0.001703   -0.0013415      35.3676 
         500      1.61333      0.00134  -0.00154141      35.3676 
         500         1.92   0.00103936  -0.00170638      35.3676 
         500      2.25333  0.000706739  -0.00182814      35.3676 
         500      2.61333  0.000354037   -0.0018971      35.3676 
         500            3  2.96977e-05  -0.00190616      35.3675 
         550            0 -2.21476e-21 -5.90126e-27      32.0308 
         550     0.013333 -0.000166923  7.48166e-07      32.0308 
         550     0.053333  -0.00096058  1.07632e-05      32.0308 
         550         0.12  -0.00239769  4.54858e-05      32.0308 
         550     0.213332  -0.00413403  0.000111642      32.0308 
         550     0.333332  -0.00555257  0.000199373      32.0308 
         550         0.48  -0.00629913  0.000291874      32.0308 
         550     0.653331  -0.00645763  0.000380703      32.0308 
         550     0.853332  -0.00622212  0.000470572      32.0308 
         550         1.08  -0.00563134  0.000572082      32.0308 
         550      1.33333  -0.00473942  0.000687396      32.0308 
         550      1.61333  -0.00378272  0.000803994      32.0308 
         550         1.92  -0.00288457   0.00090683      32.0308 
         550      2.25333  -0.00195918   0.00098885      32.0309 
         550      2.61333 -0.000998125   0.00104452      32.0309 
         550            3 -8.58889e-05   0.00106916       32.031 
         600            0            0            0      28.6994 
         600     0.013333  0.000284901 -3.55431e-07      28.6994 
         600     0.053333  0.000963842 -4.90143e-06      28.6994 
         600         0.12   0.00198421 -1.92889e-05      28.6994 
         600     0.213332    0.0030109 -4.27419e-05      28.6994 
         600     0.333332   0.00369227 -6.66115e-05      28.6994 
         600         0.48   0.00394534 -8.22008e-05      28.6994 
         600     0.653331   0.00393316 -8.82651e-05      28.6994 
         600     0.853332   0.00379596 -9.13995e-05      28.6994 
         600         1.08   0.00349807 -0.000101945      28.6994 
         600      1.33333   0.00298075 -0.000125924      28.6994 
         600      1.61333   0.00236758 -0.000158757      28.6994 
         600         1.92   0.00180276 -0.000191052      28.6993 
         600      2.25333   0.00124353 -0.000219283      28.6993 
         600      2.61333  0.000668991 -0.000242019      28.6993 
         600            3    0.0001188 -0.000257968      28.6992 
         650            0            0            0       25.363 
         650     0.013333 -4.96439e-05  2.93726e-08       25.363 
         650     0.053333  -0.00033789    2.857e-07       25.363 
         650         0.12  -0.00069587  3.26794e-07       25.363 
         650     0.213332 -0.000994574 -1.88593e-06       25.363 
         650     0.333332  -0.00116623 -8.78559e-06       25.363 
         650         0.48  -0.00123751 -2.13596e-05       25.363 
         650     0.653331  -0.00127727 -3.91404e-05       25.363 
         650     0.853332  -0.00133023 -6.07957e-05       25.363 
         650         1.08  -0.00136611 -8.28844e-05       25.363 
         650      1.33333  -0.00128912 -9.97111e-05       25.363 
         650      1.61333  -0.00107822 -0.000108162       25.363 
         650         1.92  -0.00084286 -0.000111308       25.363 
         650      2.25333 -0.000609409 -0.000111174       25.363 
         650      2.61333 -0.000371037 -0.000108139       25.363 
         650            3 -0.000133013 -0.000101921       25.363 
         700            0 -2.40278e-20 -9.45867e-27      22.0269 
         700     0.013333 -0.000211605   1.6531e-07      22.0269 
         700     0.053333 -0.000956983  2.13699e-06      22.0269 
         700         0.12  -0.00193833  7.25255e-06      22.0269 
         700     0.213332  -0.00277334  1.13213e-05      22.0269 
         700     0.333332   -0.0031543  4.62515e-06      22.0269 
         700         0.48  -0.00307679 -2.09992e-05      22.0269 
         700     0.653331  -0.00277375 -6.57578e-05      22.0269 
         700     0.853332  -0.00244685 -0.000122672      22.0269 
         700         1.08  -0.00212537  -0.00018273      22.0269 
         700      1.33333  -0.00177468 -0.000240796      22.0269 
         700      1.61333  -0.00142736 -0.000297147      22.0269 
         700         1.92  -0.00110535  -0.00035237      22.0269 
         700      2.25333 -0.000772072 -0.000403403      22.0269 
         700      2.61333 -0.000418784 -0.000446337      22.0269 
         700            3 -6.89793e-05  -0.00047806      22.0269 
         750            0            0            0      18.6931 
         750     0.013333  0.000403657 -6.16514e-07      18.6931 
         750     0.053333    0.0014894 -8.80721e-06      18.6931 
         750         0.12   0.00325588  -3.6726e-05      18.6931 
         750     0.213332   0.00523438 -8.80662e-05      18.6931 
         750     0.333332     0.006749 -0.000151297      18.6931 
         750         0.48   0.00744642 -0.000208772      18.6931 
         750     0.653331   0.00747421 -0.000251559      18.6931 
         750     0.853332   0.00713425 -0.000284409      18.6931 
         750         1.08   0.00654359 -0.000319313      18.6931 
         750      1.33333   0.00571206 -0.000363412      18.6931 
         750      1.61333   0.00477073 -0.000412336      18.6931 
         750         1.92   0.00386456 -0.000455961      18.6931 
         750      2.25333   0.00293644 -0.000490699       18.693 
         750      2.61333   0.00194898 -0.000514468       18.693 
         750            3  0.000943037 -0.000525299      18.6929 
         800            0            0            0      15.3524 
         800     0.013333   5.3978e-05  8.22559e-07      15.3524 
         800     0.053333 -0.000210378  1.22429e-05      15.3524 
         800         0.12  -0.00114558  5.45564e-05      15.3524 
         800     0.213332   -0.0027259  0.000143192      15.3524 
         800     0.333332   -0.0043669  0.000275565      15.3524 
         800         0.48  -0.00546003  0.000434848      15.3524 
         800     0.653331  -0.00583224  0.000606602      15.3524 
         800     0.853332   -0.0056196   0.00078917      15.3524 
         800         1.08  -0.00495832  0.000988316      15.3524 
         800      1.33333  -0.00403176   0.00120156      15.3524 
         800      1.61333   -0.0031636   0.00141212      15.3524 
         800         1.92  -0.00250457   0.00160133      15.3524 
         800      2.25333  -0.00188251   0.00176162      15.3524 
         800      2.61333  -0.00121029   0.00188486      15.3524 
         800            3 -0.000523333   0.00196193      15.3525 
         850            0           -0           -0      12.0175 
         850     0.013333 -9.66409e-05 -7.38955e-07      12.0175 
         850     0.053333 -0.000269674 -1.12017e-05      12.0175 
         850         0.12   0.00010052 -5.12456e-05      12.0175 
         850     0.213332    0.0011902 -0.000138614      12.0175 
         850     0.333332   0.00255259 -0.000274988      12.0175 
         850         0.48   0.00355942 -0.000446251      12.0175 
         850     0.653331   0.00392417 -0.000637351      12.0175 
         850     0.853332   0.00369977 -0.000843893      12.0175 
         850         1.08   0.00303143  -0.00106787      12.0175 
         850      1.33333   0.00218574  -0.00130204      12.0175 
         850      1.61333   0.00154877  -0.00152552      12.0175 
         850         1.92   0.00121284  -0.00172175      12.0174 
         850      2.25333  0.000929971  -0.00188488      12.0174 
         850      2.61333  0.000596884  -0.00200951      12.0174 
         850            3  0.000253125  -0.00208734      12.0174 
         900            0            0            0      8.67904 
         900     0.013333  0.000480653  7.10995e-07      8.67904 
         900     0.053333   0.00134011  1.11658e-05      8.67905 
         900         0.12   0.00175742  5.37248e-05      8.67905 
         900     0.213332   0.00114235  0.000154003      8.67905 
         900     0.333332 -0.000271058  0.000324032      8.67905 
         900         0.48  -0.00170457  0.000554752      8.67905 
         900     0.653331  -0.00254068  0.000826848      8.67905 
         900     0.853332  -0.00262959   0.00112607      8.67905 
         900         1.08  -0.00214115   0.00144438      8.67905 
         900      1.33333  -0.00146276   0.00176789      8.67905 
         900      1.61333  -0.00102936   0.00207363      8.67905 
         900         1.92 -0.000891865   0.00234529      8.67905 
         900      2.25333 -0.000780438   0.00257804      8.67906 
         900      2.61333 -0.000596413   0.00276247      8.67906 
         900            3 -0.000387639   0.00288554      8.67907 
         950            0            0            0      5.33913 
         950     0.013333 -0.000785947  2.37744e-07      5.33913 
         950     0.053333    -0.003069  2.71992e-06      5.33913 
         950         0.12  -0.00601569  6.49511e-06      5.33913 
         950     0.213332  -0.00854331 -1.66002e-06      5.33913 
         950     0.333332  -0.00986373 -4.44888e-05      5.33913 
         950         0.48  -0.00997491 -0.000139263      5.33912 
         950     0.653331  -0.00947191 -0.000287061      5.33912 
         950     0.853332  -0.00893902 -0.000475324      5.33912 
         950         1.08  -0.00853505 -0.000684367      5.33911 
         950      1.33333  -0.00800348 -0.000891544      5.33912 
         950      1.61333  -0.00708132  -0.00107892      5.33912 
         950         1.92  -0.00590023  -0.00124279      5.33914 
         950      2.25333  -0.00466856  -0.00138771      5.33918 
         950      2.61333  -0.00340991  -0.00150875      5.33923 
         950            3   -0.0020874  -0.00159686       5.3393 
        1000            0 -1.08786e-19  4.02225e-24      2.00421 
        1000     0.013333 -0.000425109 -5.71304e-07      2.00421 
        1000     0.053333  -0.00148947   -9.095e-06      2.00421 
        1000         0.12  -0.00226245 -4.39994e-05      2.00421 
        1000     0.213332  -0.00208129 -0.000127486      2.00421 
        1000     0.333332  -0.00099498 -0.000273071      2.00421 
        1000         0.48  0.000377925 -0.000478407      2.00421 
        1000     0.653331   0.00142461 -0.000730279      2.00421 
        1000     0.853332   0.00189191  -0.00101534      2.00421 
        1000         1.08   0.00182529  -0.00132549      2.00421 
        1000      1.33333   0.00142486   -0.0016529      2.00421 
        1000      1.61333  0.000980072  -0.00198337      2.00421 
        1000         1.92  0.000719701   -0.0022974      2.00421 
        1000      2.25333  0.000563903  -0.00258219       2.0042 
        1000      2.61333  0.000415561  -0.00282349       2.0042 
        1000            3    0.0002472  -0.00300697      2.00419 
