Variables = x, y, u, v, p

Zone, I=2080, F=POINT
         -50            0            0            0      -88.922 
         -50      0.00048 -2.97485e-05 -1.71975e-09      -88.922 
         -50     0.001922 -0.000105093  -6.9636e-09      -88.922 
         -50     0.004326 -0.000191411 -1.58665e-08      -88.922 
         -50      0.00769 -0.000252141 -2.83844e-08      -88.922 
         -50     0.012017 -0.000268831  -4.4122e-08      -88.922 
         -50     0.017304 -0.000250578 -6.23019e-08      -88.922 
         -50     0.023553 -0.000226225  -8.2105e-08      -88.922 
         -50     0.030763 -0.000221563 -1.03121e-07      -88.922 
         -50     0.038936 -0.000236492 -1.25686e-07      -88.922 
         -50     0.048069 -0.000244348 -1.50543e-07      -88.922 
         -50     0.058163 -0.000227122 -1.77665e-07      -88.922 
         -50     0.069219 -0.000218807 -2.04723e-07      -88.922 
         -50     0.081236 -0.000232394 -2.27782e-07      -88.922 
         -50     0.094215 -0.000221478 -2.48261e-07      -88.922 
         -50     0.108155 -0.000220421 -2.63385e-07      -88.922 
         -50     0.123056 -0.000217836 -2.70742e-07      -88.922 
         -50     0.138918 -0.000215654 -2.67461e-07      -88.922 
         -50     0.155744 -0.000214288 -2.50081e-07      -88.922 
         -50     0.173529 -0.000213197 -2.15114e-07      -88.922 
         -50     0.192276 -0.000211843 -1.59717e-07      -88.922 
         -50     0.211984 -0.000210522 -8.22376e-08      -88.922 
         -50     0.232655 -0.000210023  1.80077e-08     -88.9219 
         -50     0.254285 -0.000209066  1.41678e-07     -88.9219 
         -50     0.276877 -0.000208542   2.7119e-07     -88.9219 
         -50     0.300431 -0.000207994  3.99817e-07     -88.9219 
         -50     0.324946 -0.000207461  5.24398e-07     -88.9219 
         -50     0.350424 -0.000206962  6.37339e-07     -88.9219 
         -50     0.376861   -0.0002065  7.30232e-07     -88.9219 
         -50      0.40426  -0.00020607  7.98322e-07     -88.9219 
         -50     0.432621 -0.000205664  8.44784e-07     -88.9219 
         -50     0.461945 -0.000205282  8.83603e-07     -88.9219 
         -50     0.492228 -0.000204937  9.38987e-07     -88.9218 
         -50     0.523472 -0.000204656  1.03858e-06     -88.9218 
         -50     0.555678 -0.000204468  1.19676e-06     -88.9218 
         -50     0.588845 -0.000204378  1.38312e-06     -88.9218 
         -50     0.622976 -0.000204364   1.6407e-06     -88.9218 
         -50     0.658066 -0.000204494  1.99962e-06     -88.9217 
         -50     0.694117 -0.000204752  2.25587e-06     -88.9217 
         -50      0.73113 -0.000205141  2.42712e-06     -88.9217 
         -50     0.769107 -0.000205665  2.53001e-06     -88.9216 
         -50     0.808042 -0.000206327  2.57995e-06     -88.9216 
         -50     0.847939  -0.00020713  2.59107e-06     -88.9216 
         -50     0.888797 -0.000208079  2.57613e-06     -88.9215 
         -50      0.93062 -0.000209178  2.54657e-06     -88.9215 
         -50       0.9734 -0.000210432   2.5125e-06     -88.9214 
         -50      1.01714 -0.000211845  2.48265e-06     -88.9214 
         -50      1.06185 -0.000213421  2.46421e-06     -88.9213 
         -50      1.10751 -0.000215166  2.46247e-06     -88.9213 
         -50      1.15414 -0.000217081  2.48008e-06     -88.9212 
         -50      1.20173 -0.000219165  2.51596e-06     -88.9212 
         -50      1.25028 -0.000221414  2.56344e-06     -88.9211 
         -50      1.29979 -0.000223816  2.60765e-06      -88.921 
         -50      1.35026 -0.000226348  2.62179e-06     -88.9209 
         -50       1.4017 -0.000228976  2.56203e-06     -88.9209 
         -50      1.45409 -0.000231644  2.36071e-06     -88.9208 
         -50      1.50745  -0.00023428  1.93099e-06     -88.9207 
         -50      1.56176 -0.000236898  1.97972e-06     -88.9206 
         -50      1.61705 -0.000238992  1.94679e-06     -88.9205 
         -50      1.67329 -0.000240595  1.86068e-06     -88.9204 
         -50      1.73049 -0.000241746   1.7456e-06     -88.9203 
         -50      1.78865 -0.000242482  1.62133e-06     -88.9202 
         -50      1.84778 -0.000242844  1.50326e-06       -88.92 
         -50      1.90786 -0.000242876  1.40247e-06     -88.9199 
         -50      1.96891  -0.00024262  1.32591e-06     -88.9198 
         -50      2.03092 -0.000242122  1.27675e-06     -88.9196 
         -50      2.09389 -0.000241425  1.25478e-06     -88.9195 
         -50      2.15782 -0.000240575  1.25692e-06     -88.9193 
         -50      2.22272 -0.000239614  1.27783e-06     -88.9192 
         -50      2.28857 -0.000238586  1.31054e-06      -88.919 
         -50      2.35539 -0.000237532  1.34724e-06     -88.9188 
         -50      2.42317 -0.000236491  1.37994e-06     -88.9186 
         -50      2.49191 -0.000235497  1.40128e-06     -88.9185 
         -50      2.56161 -0.000234583  1.40524e-06     -88.9183 
         -50      2.63226 -0.000233778  1.38774e-06      -88.918 
         -50      2.70389 -0.000233104  1.34714e-06     -88.9178 
         -50      2.77648 -0.000232581   1.2846e-06     -88.9176 
         -50      2.85002  -0.00023222  1.20411e-06     -88.9174 
         -50      2.92453 -0.000232028  1.11224e-06     -88.9171 
         -50            3 -0.000232003  1.01746e-06     -88.9169 
         -25            0 -2.55862e-19 -3.71202e-24     -86.5334 
         -25      0.00048 -2.54796e-05 -3.57713e-10     -86.5334 
         -25     0.001922 -9.00865e-05 -1.09985e-09     -86.5334 
         -25     0.004326 -0.000164355 -1.21418e-09     -86.5334 
         -25      0.00769 -0.000217178  1.01424e-09     -86.5334 
         -25     0.012017  -0.00023288  8.00271e-09     -86.5334 
         -25     0.017304 -0.000219254  2.27817e-08     -86.5334 
         -25     0.023553 -0.000200909  4.88365e-08     -86.5334 
         -25     0.030763 -0.000199849  8.98505e-08     -86.5334 
         -25     0.038936 -0.000216018  1.49513e-07     -86.5334 
         -25     0.048069 -0.000226725  2.31393e-07     -86.5334 
         -25     0.058163 -0.000216635   3.3914e-07     -86.5334 
         -25     0.069219 -0.000214686  4.76692e-07     -86.5334 
         -25     0.081236 -0.000231905  6.47922e-07     -86.5334 
         -25     0.094215 -0.000228719  8.54725e-07     -86.5334 
         -25     0.108155 -0.000234324  1.09926e-06     -86.5334 
         -25     0.123056 -0.000238939  1.38288e-06     -86.5334 
         -25     0.138918  -0.00024412  1.70609e-06     -86.5334 
         -25     0.155744  -0.00025012  2.06867e-06     -86.5334 
         -25     0.173529 -0.000256377  2.46944e-06     -86.5334 
         -25     0.192276  -0.00026234  2.90667e-06     -86.5334 
         -25     0.211984 -0.000268171  3.37795e-06     -86.5334 
         -25     0.232655 -0.000274466  3.88058e-06     -86.5334 
         -25     0.254285 -0.000280064  4.41151e-06     -86.5334 
         -25     0.276877 -0.000285674  4.96767e-06     -86.5334 
         -25     0.300431 -0.000290865  5.54747e-06     -86.5334 
         -25     0.324946 -0.000295634  6.14885e-06     -86.5334 
         -25     0.350424  -0.00029997  6.77072e-06     -86.5334 
         -25     0.376861 -0.000303852   7.4123e-06     -86.5334 
         -25      0.40426 -0.000307256  8.07277e-06     -86.5334 
         -25     0.432621 -0.000310154  8.75039e-06     -86.5334 
         -25     0.461945 -0.000312525  9.44197e-06     -86.5334 
         -25     0.492228 -0.000314353  1.01425e-05     -86.5334 
         -25     0.523472 -0.000315634  1.08462e-05     -86.5334 
         -25     0.555678 -0.000316365  1.15478e-05     -86.5334 
         -25     0.588845 -0.000316531  1.22465e-05     -86.5334 
         -25     0.622976 -0.000316116    1.296e-05     -86.5333 
         -25     0.658066  -0.00031515  1.36963e-05     -86.5333 
         -25     0.694117 -0.000313618   1.4443e-05     -86.5333 
         -25      0.73113 -0.000311548  1.51996e-05     -86.5333 
         -25     0.769107 -0.000308977  1.59652e-05     -86.5333 
         -25     0.808042 -0.000305954  1.67379e-05     -86.5333 
         -25     0.847939 -0.000302533  1.75152e-05     -86.5333 
         -25     0.888797 -0.000298775  1.82941e-05     -86.5333 
         -25      0.93062 -0.000294743  1.90707e-05     -86.5333 
         -25       0.9734 -0.000290497  1.98402e-05     -86.5333 
         -25      1.01714 -0.000286097  2.05978e-05     -86.5332 
         -25      1.06185 -0.000281592  2.13377e-05     -86.5332 
         -25      1.10751 -0.000277025  2.20541e-05     -86.5332 
         -25      1.15414 -0.000272425  2.27409e-05     -86.5332 
         -25      1.20173 -0.000267811  2.33919e-05     -86.5332 
         -25      1.25028 -0.000263192  2.40012e-05     -86.5332 
         -25      1.29979  -0.00025857  2.45634e-05     -86.5332 
         -25      1.35026 -0.000253947  2.50735e-05     -86.5331 
         -25       1.4017  -0.00024934  2.55273e-05     -86.5331 
         -25      1.45409 -0.000244791  2.59217e-05     -86.5331 
         -25      1.50745 -0.000240392  2.62594e-05     -86.5331 
         -25      1.56176 -0.000235846  2.67214e-05      -86.533 
         -25      1.61705 -0.000231364  2.70338e-05      -86.533 
         -25      1.67329 -0.000226974  2.72218e-05      -86.533 
         -25      1.73049 -0.000222696  2.73095e-05      -86.533 
         -25      1.78865 -0.000218553  2.73185e-05     -86.5329 
         -25      1.84778  -0.00021456  2.72685e-05     -86.5329 
         -25      1.90786 -0.000210734  2.71763e-05     -86.5329 
         -25      1.96891 -0.000207086  2.70562e-05     -86.5328 
         -25      2.03092 -0.000203628  2.69191e-05     -86.5328 
         -25      2.09389 -0.000200369  2.67728e-05     -86.5328 
         -25      2.15782 -0.000197317  2.66218e-05     -86.5327 
         -25      2.22272 -0.000194479  2.64674e-05     -86.5327 
         -25      2.28857 -0.000191863  2.63073e-05     -86.5326 
         -25      2.35539 -0.000189476  2.61363e-05     -86.5326 
         -25      2.42317 -0.000187326  2.59459e-05     -86.5325 
         -25      2.49191 -0.000185422  2.57251e-05     -86.5325 
         -25      2.56161 -0.000183773  2.54608e-05     -86.5324 
         -25      2.63226  -0.00018239  2.51377e-05     -86.5324 
         -25      2.70389 -0.000181284  2.47396e-05     -86.5323 
         -25      2.77648 -0.000180467  2.42501e-05     -86.5323 
         -25      2.85002 -0.000179947  2.36531e-05     -86.5322 
         -25      2.92453 -0.000179732  2.29342e-05     -86.5322 
         -25            3 -0.000179825  2.20817e-05     -86.5321 
           0            0            0            0      -84.242 
           0      0.00048 -0.000123251  7.62192e-05     -84.2421 
           0     0.001922 -0.000427323  0.000263002     -84.2425 
           0     0.004326 -0.000750939  0.000457768      -84.243 
           0      0.00769 -0.000930391   0.00055716     -84.2436 
           0     0.012017 -0.000896594  0.000519368     -84.2445 
           0     0.017304 -0.000716283   0.00039042     -84.2454 
           0     0.023553 -0.000543915  0.000272555     -84.2463 
           0     0.030763 -0.000501073   0.00024548     -84.2473 
           0     0.038936 -0.000564338  0.000292556     -84.2482 
           0     0.048069 -0.000578897  0.000308198     -84.2492 
           0     0.058163 -0.000461696  0.000229914     -84.2503 
           0     0.069219 -0.000423621  0.000190667     -84.2513 
           0     0.081236 -0.000502755  0.000246532     -84.2525 
           0     0.094215 -0.000436035  0.000198935     -84.2536 
           0     0.108155 -0.000431628  0.000191727     -84.2547 
           0     0.123056 -0.000417718  0.000182592     -84.2559 
           0     0.138918 -0.000406396  0.000173915      -84.257 
           0     0.155744 -0.000399747  0.000166405     -84.2582 
           0     0.173529 -0.000393836  0.000159656     -84.2594 
           0     0.192276 -0.000385186  0.000153136     -84.2606 
           0     0.211984 -0.000376173  0.000147045     -84.2619 
           0     0.232655 -0.000372222  0.000141943     -84.2631 
           0     0.254285 -0.000364353  0.000136309     -84.2644 
           0     0.276877 -0.000358954  0.000131686     -84.2656 
           0     0.300431 -0.000353248  0.000127109     -84.2669 
           0     0.324946  -0.00034774  0.000122843     -84.2681 
           0     0.350424  -0.00034251  0.000118799     -84.2694 
           0     0.376861  -0.00033755   0.00011495     -84.2707 
           0      0.40426 -0.000332847  0.000111278     -84.2719 
           0     0.432621 -0.000328407  0.000107772     -84.2732 
           0     0.461945 -0.000324218  0.000104424     -84.2745 
           0     0.492228 -0.000320261  0.000101205     -84.2758 
           0     0.523472 -0.000316526   9.8135e-05     -84.2771 
           0     0.555678 -0.000312976  9.51793e-05     -84.2784 
           0     0.588845 -0.000309575  9.23367e-05     -84.2797 
           0     0.622976  -0.00030629  8.95968e-05     -84.2809 
           0     0.658066 -0.000303075  8.69676e-05     -84.2822 
           0     0.694117 -0.000299883  8.44387e-05     -84.2835 
           0      0.73113 -0.000296669  8.20024e-05     -84.2848 
           0     0.769107 -0.000293393  7.96551e-05     -84.2861 
           0     0.808042 -0.000290024  7.73967e-05     -84.2874 
           0     0.847939 -0.000286541  7.52279e-05     -84.2886 
           0     0.888797 -0.000282931  7.31455e-05     -84.2899 
           0      0.93062 -0.000279197  7.11385e-05     -84.2912 
           0       0.9734 -0.000275357  6.92077e-05     -84.2925 
           0      1.01714 -0.000271442  6.73453e-05     -84.2937 
           0      1.06185 -0.000267488  6.55537e-05      -84.295 
           0      1.10751 -0.000263526  6.38324e-05     -84.2963 
           0      1.15414 -0.000259581  6.21797e-05     -84.2975 
           0      1.20173 -0.000255687  6.05596e-05     -84.2988 
           0      1.25028 -0.000251852  5.90006e-05        -84.3 
           0      1.29979  -0.00024809  5.75167e-05     -84.3012 
           0      1.35026 -0.000244394  5.60863e-05     -84.3025 
           0       1.4017 -0.000240753  5.46806e-05     -84.3037 
           0      1.45409 -0.000237167  5.33038e-05     -84.3049 
           0      1.50745 -0.000233647  5.19716e-05     -84.3061 
           0      1.56176  -0.00023021  5.06964e-05     -84.3073 
           0      1.61705 -0.000226877  4.94759e-05     -84.3085 
           0      1.67329 -0.000223667  4.82916e-05     -84.3097 
           0      1.73049  -0.00022059  4.71177e-05     -84.3109 
           0      1.78865  -0.00021764  4.59467e-05     -84.3121 
           0      1.84778 -0.000214784  4.48366e-05     -84.3132 
           0      1.90786 -0.000211967  4.38258e-05     -84.3144 
           0      1.96891 -0.000209217  4.27741e-05     -84.3156 
           0      2.03092 -0.000206459  4.17661e-05     -84.3167 
           0      2.09389 -0.000203726  4.08132e-05     -84.3178 
           0      2.15782 -0.000201076  3.98241e-05      -84.319 
           0      2.22272 -0.000198573  3.87893e-05     -84.3201 
           0      2.28857 -0.000196266  3.77514e-05     -84.3212 
           0      2.35539 -0.000194183  3.67371e-05     -84.3223 
           0      2.42317 -0.000192332  3.57314e-05     -84.3234 
           0      2.49191 -0.000190707  3.47098e-05     -84.3245 
           0      2.56161 -0.000189306  3.37478e-05     -84.3256 
           0      2.63226  -0.00018806  3.29113e-05     -84.3266 
           0      2.70389 -0.000186954  3.22366e-05     -84.3277 
           0      2.77648 -0.000185984  3.17515e-05     -84.3287 
           0      2.85002 -0.000185059  3.14536e-05     -84.3298 
           0      2.92453 -0.000184097  3.13764e-05     -84.3308 
           0            3 -0.000183057  3.15331e-05     -84.3318 
          20            0 -2.52405e-19  -1.7685e-23     -82.8073 
          20      0.00048 -2.51334e-05 -1.86513e-09     -82.8073 
          20     0.001922 -8.88399e-05 -7.81047e-09     -82.8073 
          20     0.004326 -0.000161994 -1.87297e-08     -82.8073 
          20      0.00769 -0.000213829 -3.57327e-08     -82.8073 
          20     0.012017 -0.000228806 -5.98602e-08     -82.8073 
          20     0.017304 -0.000214551 -9.19273e-08     -82.8073 
          20     0.023553 -0.000195294 -1.32802e-07     -82.8073 
          20     0.030763 -0.000192702 -1.83771e-07     -82.8073 
          20     0.038936 -0.000206675  -2.4677e-07     -82.8073 
          20     0.048069 -0.000214789 -3.23764e-07     -82.8073 
          20     0.058163 -0.000201911 -4.15186e-07     -82.8073 
          20     0.069219 -0.000196653 -5.17987e-07     -82.8073 
          20     0.081236 -0.000209965 -6.26509e-07     -82.8073 
          20     0.094215  -0.00020286 -7.40662e-07     -82.8073 
          20     0.108155 -0.000204275 -8.55615e-07     -82.8073 
          20     0.123056 -0.000204665 -9.65541e-07     -82.8073 
          20     0.138918 -0.000205683 -1.06503e-06     -82.8073 
          20     0.155744 -0.000207692 -1.14909e-06     -82.8073 
          20     0.173529 -0.000210244  -1.2134e-06     -82.8073 
          20     0.192276 -0.000212884 -1.25463e-06     -82.8073 
          20     0.211984 -0.000215843 -1.27069e-06     -82.8073 
          20     0.232655 -0.000219777 -1.26146e-06     -82.8072 
          20     0.254285 -0.000223614 -1.23022e-06     -82.8072 
          20     0.276877 -0.000228053 -1.17971e-06     -82.8072 
          20     0.300431 -0.000232739  -1.1161e-06     -82.8072 
          20     0.324946 -0.000237735  -1.0492e-06     -82.8072 
          20     0.350424 -0.000243074 -9.87454e-07     -82.8072 
          20     0.376861 -0.000248742 -9.35875e-07     -82.8072 
          20      0.40426 -0.000254676 -8.95442e-07     -82.8072 
          20     0.432621 -0.000260812 -8.70409e-07     -82.8072 
          20     0.461945 -0.000267032 -8.57292e-07     -82.8071 
          20     0.492228 -0.000273188 -8.49274e-07     -82.8071 
          20     0.523472  -0.00027911 -8.36701e-07     -82.8071 
          20     0.555678  -0.00028462 -8.07944e-07     -82.8071 
          20     0.588845 -0.000289542  -7.5066e-07      -82.807 
          20     0.622976 -0.000293729  -6.5342e-07      -82.807 
          20     0.658066  -0.00029708 -5.07755e-07      -82.807 
          20     0.694117 -0.000299571 -3.10427e-07      -82.807 
          20      0.73113 -0.000301286 -6.59622e-08     -82.8069 
          20     0.769107 -0.000302362  2.15274e-07     -82.8069 
          20     0.808042 -0.000302838  5.30258e-07     -82.8068 
          20     0.847939 -0.000302836  8.70775e-07     -82.8068 
          20     0.888797 -0.000302427  1.23105e-06     -82.8067 
          20      0.93062 -0.000301656  1.60769e-06     -82.8067 
          20       0.9734 -0.000300547  1.99952e-06     -82.8066 
          20      1.01714 -0.000299111  2.40607e-06     -82.8066 
          20      1.06185 -0.000297361  2.82601e-06     -82.8065 
          20      1.10751 -0.000295307  3.25788e-06     -82.8064 
          20      1.15414 -0.000292962  3.69999e-06     -82.8064 
          20      1.20173 -0.000290344  4.15269e-06     -82.8063 
          20      1.25028 -0.000287467  4.61795e-06     -82.8062 
          20      1.29979 -0.000284327   5.0809e-06     -82.8061 
          20      1.35026 -0.000280963  5.54886e-06     -82.8061 
          20       1.4017 -0.000277359  6.01807e-06      -82.806 
          20      1.45409 -0.000273517   6.4847e-06     -82.8059 
          20      1.50745 -0.000269459  6.94465e-06     -82.8058 
          20      1.56176 -0.000265215  7.39382e-06     -82.8057 
          20      1.61705 -0.000260818   7.8286e-06     -82.8055 
          20      1.67329 -0.000256297   8.2465e-06     -82.8054 
          20      1.73049 -0.000251719  8.64101e-06     -82.8053 
          20      1.78865 -0.000247109  9.01059e-06     -82.8052 
          20      1.84778 -0.000242512  9.35736e-06      -82.805 
          20      1.90786 -0.000237968  9.67975e-06     -82.8049 
          20      1.96891 -0.000233508  9.97194e-06     -82.8048 
          20      2.03092 -0.000229132  1.02355e-05     -82.8046 
          20      2.09389 -0.000224856  1.04758e-05     -82.8045 
          20      2.15782 -0.000220707  1.06864e-05     -82.8043 
          20      2.22272 -0.000216675  1.08718e-05     -82.8041 
          20      2.28857 -0.000212771  1.10342e-05     -82.8039 
          20      2.35539 -0.000209019  1.11735e-05     -82.8038 
          20      2.42317 -0.000205455  1.12875e-05     -82.8036 
          20      2.49191 -0.000202117  1.13732e-05     -82.8034 
          20      2.56161 -0.000199041  1.14281e-05     -82.8032 
          20      2.63226 -0.000196248  1.14532e-05      -82.803 
          20      2.70389 -0.000193736  1.14565e-05     -82.8028 
          20      2.77648  -0.00019163   1.1416e-05     -82.8025 
          20      2.85002 -0.000189967  1.12903e-05     -82.8023 
          20      2.92453 -0.000188611   1.1133e-05     -82.8021 
          20            3 -0.000187581   1.0923e-05     -82.8019 
          40            0           -0           -0     -81.1277 
          40      0.00048 -2.35707e-05 -3.86304e-11     -81.1277 
          40     0.001922 -8.33706e-05  3.17642e-10     -81.1277 
          40     0.004326 -0.000152223  2.46133e-09     -81.1277 
          40      0.00769 -0.000201432  8.62029e-09     -81.1277 
          40     0.012017 -0.000216525  2.17302e-08     -81.1277 
          40     0.017304 -0.000204663   4.5208e-08     -81.1277 
          40     0.023553 -0.000188499  8.27216e-08     -81.1277 
          40     0.030763  -0.00018827  1.37862e-07     -81.1277 
          40     0.038936 -0.000203856  2.13878e-07     -81.1277 
          40     0.048069 -0.000214249  3.13353e-07     -81.1277 
          40     0.058163 -0.000205221  4.38106e-07     -81.1277 
          40     0.069219 -0.000203364  5.89058e-07     -81.1277 
          40     0.081236 -0.000218738   7.6602e-07     -81.1277 
          40     0.094215 -0.000214757  9.67336e-07     -81.1277 
          40     0.108155 -0.000218258  1.19039e-06     -81.1277 
          40     0.123056 -0.000220147  1.43152e-06     -81.1277 
          40     0.138918 -0.000221812  1.68625e-06     -81.1277 
          40     0.155744 -0.000223465  1.94968e-06     -81.1277 
          40     0.173529 -0.000224599  2.21656e-06     -81.1277 
          40     0.192276 -0.000224743  2.48188e-06     -81.1277 
          40     0.211984 -0.000224118  2.74102e-06     -81.1277 
          40     0.232655  -0.00022337   2.9902e-06     -81.1277 
          40     0.254285 -0.000221546   3.2269e-06     -81.1277 
          40     0.276877 -0.000219428  3.44897e-06     -81.1277 
          40     0.300431 -0.000216757  3.65619e-06     -81.1277 
          40     0.324946  -0.00021367  3.85016e-06     -81.1277 
          40     0.350424 -0.000210283  4.03334e-06     -81.1277 
          40     0.376861 -0.000206696  4.20907e-06     -81.1277 
          40      0.40426 -0.000202983  4.38179e-06     -81.1277 
          40     0.432621 -0.000199201  4.55696e-06     -81.1277 
          40     0.461945 -0.000195386  4.74102e-06     -81.1277 
          40     0.492228 -0.000191563  4.94112e-06     -81.1277 
          40     0.523472 -0.000187744  5.16462e-06     -81.1277 
          40     0.555678  -0.00018393  5.41816e-06     -81.1277 
          40     0.588845   -0.0001801  5.70624e-06     -81.1277 
          40     0.622976 -0.000176222  6.02924e-06     -81.1277 
          40     0.658066 -0.000172307  6.40207e-06     -81.1277 
          40     0.694117 -0.000168332  6.82706e-06     -81.1277 
          40      0.73113 -0.000164323  7.29863e-06     -81.1277 
          40     0.769107 -0.000160322  7.81131e-06     -81.1277 
          40     0.808042 -0.000156388  8.35948e-06     -81.1276 
          40     0.847939 -0.000152587  8.93746e-06     -81.1276 
          40     0.888797 -0.000148998  9.53916e-06     -81.1276 
          40      0.93062 -0.000145701   1.0158e-05     -81.1276 
          40       0.9734  -0.00014278  1.07863e-05     -81.1276 
          40      1.01714  -0.00014031   1.1416e-05     -81.1276 
          40      1.06185 -0.000138358  1.20378e-05     -81.1276 
          40      1.10751 -0.000136974  1.26416e-05     -81.1276 
          40      1.15414 -0.000136188  1.32169e-05     -81.1276 
          40      1.20173 -0.000136008  1.37533e-05     -81.1276 
          40      1.25028 -0.000136415  1.42416e-05     -81.1276 
          40      1.29979 -0.000137371  1.46757e-05     -81.1276 
          40      1.35026 -0.000138818  1.50545e-05     -81.1276 
          40       1.4017 -0.000140695  1.53853e-05     -81.1276 
          40      1.45409 -0.000142955   1.5688e-05     -81.1276 
          40      1.50745 -0.000145593  1.59992e-05     -81.1276 
          40      1.56176 -0.000148493  1.62014e-05     -81.1276 
          40      1.61705 -0.000151405  1.63391e-05     -81.1276 
          40      1.67329 -0.000154298  1.64264e-05     -81.1276 
          40      1.73049 -0.000157151  1.64747e-05     -81.1276 
          40      1.78865 -0.000159946  1.64922e-05     -81.1276 
          40      1.84778 -0.000162669  1.64843e-05     -81.1276 
          40      1.90786 -0.000165311  1.64535e-05     -81.1276 
          40      1.96891 -0.000167869  1.64003e-05     -81.1276 
          40      2.03092  -0.00017034  1.63227e-05     -81.1275 
          40      2.09389 -0.000172728  1.62175e-05     -81.1275 
          40      2.15782 -0.000175035  1.60804e-05     -81.1275 
          40      2.22272 -0.000177267  1.59067e-05     -81.1275 
          40      2.28857 -0.000179428  1.56918e-05     -81.1275 
          40      2.35539 -0.000181523  1.54321e-05     -81.1275 
          40      2.42317 -0.000183554  1.51256e-05     -81.1275 
          40      2.49191  -0.00018552  1.47727e-05     -81.1275 
          40      2.56161 -0.000187417  1.43767e-05     -81.1275 
          40      2.63226 -0.000189237  1.39443e-05     -81.1275 
          40      2.70389 -0.000190964  1.34864e-05     -81.1274 
          40      2.77648  -0.00019258  1.30182e-05     -81.1274 
          40      2.85002 -0.000194059  1.25592e-05     -81.1274 
          40      2.92453 -0.000195372   1.2133e-05     -81.1274 
          40            3 -0.000196487  1.17669e-05     -81.1274 
          60            0           -0           -0     -79.4856 
          60      0.00048 -2.43171e-05 -4.61965e-12     -79.4856 
          60     0.001922  -8.6423e-05  1.39262e-10     -79.4856 
          60     0.004326 -0.000159286  8.73605e-10     -79.4856 
          60      0.00769 -0.000214323  2.82875e-09     -79.4856 
          60     0.012017 -0.000237037  6.67448e-09     -79.4856 
          60     0.017304 -0.000234351  1.29102e-08     -79.4856 
          60     0.023553 -0.000228542  2.16368e-08     -79.4856 
          60     0.030763 -0.000239467  3.23022e-08     -79.4856 
          60     0.038936  -0.00026677  4.34822e-08     -79.4856 
          60     0.048069 -0.000289361  5.26989e-08     -79.4856 
          60     0.058163 -0.000292884  5.63394e-08     -79.4856 
          60     0.069219 -0.000303505  4.96163e-08     -79.4856 
          60     0.081236 -0.000330992  2.65166e-08     -79.4856 
          60     0.094215 -0.000338863 -2.00668e-08     -79.4856 
          60     0.108155 -0.000353591 -9.79731e-08     -79.4856 
          60     0.123056  -0.00036603 -2.16032e-07     -79.4856 
          60     0.138918 -0.000377468 -3.83168e-07     -79.4856 
          60     0.155744 -0.000388059 -6.08202e-07     -79.4856 
          60     0.173529  -0.00039727 -8.99558e-07     -79.4856 
          60     0.192276 -0.000404639 -1.26535e-06     -79.4856 
          60     0.211984 -0.000410412 -1.71292e-06     -79.4856 
          60     0.232655  -0.00041528 -2.24824e-06     -79.4856 
          60     0.254285 -0.000418363  -2.8741e-06     -79.4856 
          60     0.276877 -0.000420525 -3.59737e-06     -79.4856 
          60     0.300431 -0.000421602 -4.41936e-06     -79.4856 
          60     0.324946 -0.000421831 -5.33794e-06     -79.4856 
          60     0.350424 -0.000421439 -6.35214e-06     -79.4856 
          60     0.376861  -0.00042064 -7.46105e-06     -79.4856 
          60      0.40426 -0.000419621  -8.6634e-06     -79.4856 
          60     0.432621 -0.000418547 -9.95606e-06     -79.4856 
          60     0.461945 -0.000417552 -1.13333e-05     -79.4856 
          60     0.492228 -0.000416745 -1.27864e-05     -79.4856 
          60     0.523472 -0.000416196  -1.4305e-05     -79.4856 
          60     0.555678 -0.000415937 -1.58803e-05     -79.4856 
          60     0.588845 -0.000415935 -1.75113e-05     -79.4856 
          60     0.622976 -0.000416052  -1.9202e-05     -79.4856 
          60     0.658066 -0.000416301  -2.0894e-05     -79.4856 
          60     0.694117 -0.000416513  -2.2583e-05     -79.4856 
          60      0.73113 -0.000416414 -2.42692e-05     -79.4856 
          60     0.769107 -0.000415769 -2.59471e-05     -79.4856 
          60     0.808042  -0.00041438 -2.76059e-05     -79.4856 
          60     0.847939   -0.0004121  -2.9232e-05     -79.4856 
          60     0.888797 -0.000408827 -3.08095e-05     -79.4856 
          60      0.93062 -0.000404512 -3.23231e-05     -79.4856 
          60       0.9734 -0.000399157 -3.37594e-05     -79.4856 
          60      1.01714 -0.000392809 -3.51097e-05     -79.4856 
          60      1.06185  -0.00038556 -3.63713e-05     -79.4856 
          60      1.10751 -0.000377532 -3.75485e-05     -79.4856 
          60      1.15414 -0.000368876 -3.86527e-05     -79.4856 
          60      1.20173 -0.000359756 -3.97009e-05     -79.4856 
          60      1.25028 -0.000350334 -4.07119e-05     -79.4856 
          60      1.29979 -0.000340757 -4.16996e-05     -79.4856 