Variables = x, y, u, v, p

Zone, I=2080, F=POINT
         -50            0            0            0     -133.744 
         -50      0.00048 -3.35227e-05 -2.85531e-09     -133.744 
         -50     0.001922 -0.000117997 -1.09681e-08     -133.744 
         -50     0.004326 -0.000213587 -2.32072e-08     -133.744 
         -50      0.00769 -0.000278924 -3.84345e-08     -133.744 
         -50     0.012017 -0.000294501 -5.62662e-08     -133.744 
         -50     0.017304 -0.000273032 -7.74188e-08     -133.744 
         -50     0.023553 -0.000249016 -1.03556e-07     -133.744 
         -50     0.030763  -0.00025096 -1.36528e-07     -133.744 
         -50     0.038936 -0.000274996 -1.77596e-07     -133.744 
         -50     0.048069  -0.00028702 -2.27242e-07     -133.744 
         -50     0.058163 -0.000268392 -2.86121e-07     -133.744 
         -50     0.069219 -0.000266192 -3.56054e-07     -133.744 
         -50     0.081236 -0.000284875 -4.36977e-07     -133.744 
         -50     0.094215 -0.000275661 -5.28694e-07     -133.744 
         -50     0.108155 -0.000278436 -6.32947e-07     -133.744 
         -50     0.123056 -0.000277103 -7.47894e-07     -133.744 
         -50     0.138918 -0.000276443 -8.72238e-07     -133.744 
         -50     0.155744 -0.000277333 -1.00415e-06     -133.744 
         -50     0.173529 -0.000278298 -1.14069e-06     -133.744 
         -50     0.192276 -0.000278042 -1.27748e-06     -133.744 
         -50     0.211984 -0.000277553 -1.40882e-06     -133.744 
         -50     0.232655 -0.000279012 -1.52929e-06     -133.744 
         -50     0.254285 -0.000278785 -1.63743e-06     -133.744 
         -50     0.276877 -0.000279834 -1.72763e-06     -133.744 
         -50     0.300431 -0.000280687 -1.79302e-06     -133.744 
         -50     0.324946 -0.000281524 -1.84501e-06     -133.744 
         -50     0.350424 -0.000282442 -1.91095e-06     -133.744 
         -50     0.376861 -0.000283465 -2.02658e-06     -133.744 
         -50      0.40426 -0.000284565  -2.2256e-06     -133.744 
         -50     0.432621 -0.000285689 -2.52785e-06     -133.744 
         -50     0.461945 -0.000286787  -2.9281e-06     -133.744 
         -50     0.492228 -0.000287841 -3.38876e-06     -133.744 
         -50     0.523472 -0.000288873 -3.84158e-06     -133.744 
         -50     0.555678 -0.000289914 -4.20432e-06     -133.744 
         -50     0.588845 -0.000290917 -4.42142e-06     -133.744 
         -50     0.622976 -0.000291748 -4.44472e-06     -133.744 
         -50     0.658066 -0.000292523 -4.36918e-06     -133.744 
         -50     0.694117 -0.000293128  -4.3528e-06     -133.744 
         -50      0.73113 -0.000293548 -4.39046e-06     -133.744 
         -50     0.769107 -0.000293775 -4.47441e-06     -133.744 
         -50     0.808042  -0.00029381 -4.59463e-06     -133.743 
         -50     0.847939  -0.00029366 -4.73949e-06     -133.743 
         -50     0.888797 -0.000293339 -4.89652e-06     -133.743 
         -50      0.93062 -0.000292867 -5.05324e-06     -133.743 
         -50       0.9734 -0.000292269 -5.19815e-06     -133.743 
         -50      1.01714 -0.000291573 -5.32177e-06     -133.743 
         -50      1.06185 -0.000290808 -5.41754e-06     -133.743 
         -50      1.10751 -0.000290004 -5.48264e-06     -133.743 
         -50      1.15414 -0.000289189 -5.51853e-06     -133.743 
         -50      1.20173 -0.000288386 -5.53104e-06     -133.743 
         -50      1.25028 -0.000287614 -5.52988e-06     -133.743 
         -50      1.29979 -0.000286886 -5.52725e-06     -133.743 
         -50      1.35026 -0.000286206 -5.53538e-06     -133.742 
         -50       1.4017 -0.000285577  -5.5626e-06     -133.742 
         -50      1.45409 -0.000284995 -5.60761e-06     -133.742 
         -50      1.50745 -0.000284462 -5.65039e-06     -133.742 
         -50      1.56176 -0.000283977 -5.63138e-06     -133.742 
         -50      1.61705 -0.000283446 -5.63494e-06     -133.742 
         -50      1.67329 -0.000282958 -5.66741e-06     -133.742 
         -50      1.73049 -0.000282586 -5.73196e-06     -133.741 
         -50      1.78865 -0.000282382 -5.82885e-06     -133.741 
         -50      1.84778 -0.000282378 -5.95561e-06     -133.741 
         -50      1.90786 -0.000282589 -6.10743e-06     -133.741 
         -50      1.96891 -0.000283013 -6.27762e-06     -133.741 
         -50      2.03092 -0.000283632 -6.45806e-06      -133.74 
         -50      2.09389 -0.000284415 -6.63986e-06      -133.74 
         -50      2.15782 -0.000285318 -6.81392e-06      -133.74 
         -50      2.22272  -0.00028629 -6.97172e-06      -133.74 
         -50      2.28857 -0.000287277 -7.10599e-06      -133.74 
         -50      2.35539 -0.000288219 -7.21141e-06     -133.739 
         -50      2.42317 -0.000289061 -7.28536e-06     -133.739 
         -50      2.49191 -0.000289753 -7.32846e-06     -133.739 
         -50      2.56161 -0.000290253 -7.34524e-06     -133.738 
         -50      2.63226 -0.000290532 -7.34438e-06     -133.738 
         -50      2.70389 -0.000290577   -7.339e-06     -133.738 
         -50      2.77648 -0.000290389 -7.34652e-06     -133.737 
         -50      2.85002 -0.000289992 -7.38827e-06     -133.737 
         -50      2.92453 -0.000289423 -7.48867e-06     -133.737 
         -50            3 -0.000288739  -7.6739e-06     -133.736 
         -25            0 -2.84018e-19 -6.67444e-24     -130.107 
         -25      0.00048 -2.82308e-05 -6.81391e-10     -130.107 
         -25     0.001922 -9.92308e-05  -2.6027e-09     -130.107 
         -25     0.004326 -0.000179113 -5.44587e-09     -130.107 
         -25      0.00769 -0.000232701 -8.84494e-09     -130.107 
         -25     0.012017  -0.00024344 -1.25434e-08     -130.107 
         -25     0.017304 -0.000222216 -1.64407e-08     -130.107 
         -25     0.023553 -0.000198468  -2.0505e-08     -130.107 
         -25     0.030763 -0.000196541 -2.45352e-08     -130.107 
         -25     0.038936 -0.000213231 -2.79209e-08     -130.107 
         -25     0.048069 -0.000219599 -2.95653e-08     -130.107 
         -25     0.058163 -0.000199874 -2.81027e-08     -130.107 
         -25     0.069219 -0.000194222 -2.21721e-08     -130.107 
         -25     0.081236 -0.000206517 -9.73924e-09     -130.107 
         -25     0.094215 -0.000195314  1.15006e-08     -130.107 
         -25     0.108155 -0.000194626  4.36031e-08     -130.107 
         -25     0.123056 -0.000190799  8.91161e-08     -130.107 
         -25     0.138918 -0.000187934  1.50517e-07     -130.107 
         -25     0.155744 -0.000186791  2.30319e-07     -130.107 
         -25     0.173529 -0.000186113  3.30877e-07     -130.107 
         -25     0.192276  -0.00018478  4.54339e-07     -130.107 
         -25     0.211984 -0.000183604  6.02549e-07     -130.107 
         -25     0.232655 -0.000184401  7.77242e-07     -130.107 
         -25     0.254285 -0.000184034    9.805e-07     -130.107 
         -25     0.276877 -0.000184973  1.21225e-06     -130.107 
         -25     0.300431 -0.000185915  1.47226e-06     -130.107 
         -25     0.324946 -0.000186967  1.76155e-06     -130.107 
         -25     0.350424 -0.000188169  2.08071e-06     -130.107 
         -25     0.376861 -0.000189509  2.42974e-06     -130.107 
         -25      0.40426 -0.000190932  2.80824e-06     -130.107 
         -25     0.432621  -0.00019237  3.21522e-06     -130.107 
         -25     0.461945 -0.000193765  3.64906e-06     -130.107 
         -25     0.492228 -0.000195089  4.10721e-06     -130.107 
         -25     0.523472 -0.000196353  4.58592e-06     -130.107 
         -25     0.555678 -0.000197585  5.07945e-06     -130.107 
         -25     0.588845 -0.000198767  5.57893e-06     -130.107 
         -25     0.622976 -0.000199825  6.05875e-06     -130.107 
         -25     0.658066 -0.000200884  6.53191e-06     -130.107 
         -25     0.694117 -0.000201913  7.02281e-06     -130.107 
         -25      0.73113  -0.00020296  7.52584e-06     -130.107 
         -25     0.769107 -0.000204065   8.0359e-06     -130.107 
         -25     0.808042 -0.000205255  8.54828e-06     -130.107 
         -25     0.847939 -0.000206549  9.05887e-06     -130.107 
         -25     0.888797 -0.000207956  9.56393e-06     -130.107 
         -25      0.93062 -0.000209477  1.00601e-05     -130.107 
         -25       0.9734 -0.000211105  1.05441e-05     -130.107 
         -25      1.01714 -0.000212829  1.10129e-05     -130.107 
         -25      1.06185 -0.000214634  1.14635e-05     -130.107 
         -25      1.10751 -0.000216506   1.1893e-05     -130.107 
         -25      1.15414 -0.000218429  1.22984e-05     -130.107 
         -25      1.20173 -0.000220393  1.26771e-05     -130.106 
         -25      1.25028 -0.000222385  1.30271e-05     -130.106 
         -25      1.29979 -0.000224398  1.33477e-05     -130.106 
         -25      1.35026 -0.000226415  1.36405e-05     -130.106 
         -25       1.4017 -0.000228411  1.39105e-05     -130.106 
         -25      1.45409 -0.000230337  1.41686e-05     -130.106 
         -25      1.50745 -0.000232096  1.44275e-05     -130.106 
         -25      1.56176 -0.000233716  1.44392e-05     -130.106 
         -25      1.61705 -0.000235748  1.45283e-05     -130.106 
         -25      1.67329 -0.000237877  1.46708e-05     -130.106 
         -25      1.73049 -0.000239845  1.48429e-05     -130.106 
         -25      1.78865 -0.000241454  1.50214e-05     -130.106 
         -25      1.84778 -0.000242568  1.51843e-05     -130.106 
         -25      1.90786 -0.000243108  1.53107e-05     -130.106 
         -25      1.96891 -0.000243051  1.53819e-05     -130.106 
         -25      2.03092 -0.000242424  1.53809e-05     -130.106 
         -25      2.09389 -0.000241297  1.52935e-05     -130.106 
         -25      2.15782 -0.000239779  1.51084e-05     -130.106 
         -25      2.22272 -0.000238004  1.48173e-05     -130.106 
         -25      2.28857 -0.000236127  1.44155e-05     -130.106 
         -25      2.35539 -0.000234308   1.3902e-05     -130.106 
         -25      2.42317 -0.000232706  1.32797e-05     -130.106 
         -25      2.49191 -0.000231462  1.25553e-05     -130.105 
         -25      2.56161 -0.000230693  1.17397e-05     -130.105 
         -25      2.63226  -0.00023048  1.08472e-05     -130.105 
         -25      2.70389 -0.000230857   9.8958e-06     -130.105 
         -25      2.77648 -0.000231809  8.90674e-06     -130.105 
         -25      2.85002 -0.000233262  7.90341e-06     -130.105 
         -25      2.92453  -0.00023509  6.91086e-06     -130.105 
         -25            3 -0.000237113  5.95457e-06     -130.105 
           0            0            0            0     -126.617 
           0      0.00048 -0.000117321  7.75099e-05     -126.618 
           0     0.001922 -0.000405718  0.000268204     -126.618 
           0     0.004326 -0.000709687  0.000469342     -126.619 
           0      0.00769 -0.000873065  0.000576611      -126.62 
           0     0.012017 -0.000833228   0.00054603     -126.622 
           0     0.017304 -0.000659288  0.000420526     -126.623 
           0     0.023553 -0.000501895  0.000299667     -126.624 
           0     0.030763 -0.000473264  0.000263035     -126.626 
           0     0.038936 -0.000539819  0.000298171     -126.627 
           0     0.048069 -0.000544389  0.000307462     -126.629 
           0     0.058163 -0.000416555  0.000235042     -126.631 
           0     0.069219 -0.000385443  0.000207858     -126.632 
           0     0.081236 -0.000454135  0.000247048     -126.634 
           0     0.094215 -0.000387135  0.000204352     -126.636 
           0     0.108155  -0.00038211   0.00019936     -126.637 
           0     0.123056  -0.00036295  0.000187007     -126.639 
           0     0.138918 -0.000350186   0.00017665     -126.641 
           0     0.155744 -0.000346194   0.00017006     -126.643 
           0     0.173529   -0.0003431  0.000164401     -126.645 
           0     0.192276 -0.000335041  0.000157088     -126.646 
           0     0.211984 -0.000327647  0.000149819     -126.648 
           0     0.232655 -0.000330817    0.0001464      -126.65 
           0     0.254285 -0.000324939  0.000140157     -126.652 
           0     0.276877 -0.000324629  0.000136163     -126.654 
           0     0.300431 -0.000323609  0.000132165     -126.656 
           0     0.324946 -0.000322609  0.000128476     -126.658 
           0     0.350424 -0.000321659  0.000125112      -126.66 
           0     0.376861 -0.000320676  0.000122066     -126.662 
           0      0.40426 -0.000319564    0.0001193     -126.664 
           0     0.432621 -0.000318256  0.000116791     -126.666 
           0     0.461945 -0.000316692  0.000114523     -126.668 
           0     0.492228 -0.000314856  0.000112463      -126.67 
           0     0.523472 -0.000312721  0.000110642     -126.671 
           0     0.555678 -0.000310276  0.000108999     -126.673 
           0     0.588845 -0.000307525  0.000107526     -126.675 
           0     0.622976 -0.000304497  0.000106217     -126.677 
           0     0.658066 -0.000301221  0.000105071     -126.679 
           0     0.694117 -0.000297745  0.000104067     -126.681 
           0      0.73113 -0.000294129  0.000103188     -126.683 
           0     0.769107 -0.000290441  0.000102418     -126.685 
           0     0.808042 -0.000286758  0.000101749     -126.687 
           0     0.847939 -0.000283153  0.000101174     -126.689 
           0     0.888797 -0.000279695  0.000100687     -126.691 
           0      0.93062 -0.000276435  0.000100263     -126.693 
           0       0.9734 -0.000273427  9.98913e-05     -126.695 
           0      1.01714 -0.000270692  9.95625e-05     -126.697 
           0      1.06185 -0.000268236  9.92727e-05     -126.699 
           0      1.10751 -0.000266048  9.90126e-05     -126.701 
           0      1.15414 -0.000264096  9.87798e-05     -126.703 
           0      1.20173 -0.000262344  9.85272e-05     -126.705 
           0      1.25028 -0.000260743  9.82948e-05     -126.706 
           0      1.29979 -0.000259293  9.80821e-05     -126.708 
           0      1.35026 -0.000257939  9.78585e-05      -126.71 
           0       1.4017 -0.000256677  9.75955e-05     -126.712 
           0      1.45409 -0.000255486  9.72975e-05     -126.714 
           0      1.50745 -0.000254329  9.69764e-05     -126.716 
           0      1.56176 -0.000253162  9.66396e-05     -126.718 
           0      1.61705  -0.00025195  9.62821e-05     -126.719 
           0      1.67329 -0.000250675   9.5885e-05     -126.721 
           0      1.73049 -0.000249338  9.54241e-05     -126.723 
           0      1.78865 -0.000247955  9.48907e-05     -126.725 
           0      1.84778  -0.00024654  9.43305e-05     -126.727 
           0      1.90786 -0.000245157   9.3743e-05     -126.728 
           0      1.96891 -0.000243907  9.30492e-05      -126.73 
           0      2.03092 -0.000242768  9.22772e-05     -126.732 
           0      2.09389 -0.000241773  9.14528e-05     -126.734 
           0      2.15782 -0.000240955  9.06025e-05     -126.735 
           0      2.22272  -0.00024029  8.96934e-05     -126.737 
           0      2.28857 -0.000239705  8.87246e-05     -126.739 
           0      2.35539 -0.000239121  8.77246e-05      -126.74 
           0      2.42317 -0.000238478  8.67385e-05     -126.742 
           0      2.49191 -0.000237723   8.5803e-05     -126.744 
           0      2.56161 -0.000236778  8.49044e-05     -126.745 
           0      2.63226 -0.000235602  8.40978e-05     -126.747 
           0      2.70389 -0.000234171  8.33613e-05     -126.749 
           0      2.77648 -0.000232464  8.26612e-05      -126.75 
           0      2.85002 -0.000230559  8.20239e-05     -126.752 
           0      2.92453 -0.000228564  8.14359e-05     -126.753 
           0            3 -0.000226599  8.08468e-05     -126.755 
          20            0 -2.67415e-19 -3.14015e-23     -124.435 
          20      0.00048 -2.65257e-05 -3.25828e-09     -124.435 
          20     0.001922    -9.26e-05 -1.30836e-08     -124.435 
          20     0.004326 -0.000164827 -2.98407e-08     -124.435 
          20      0.00769 -0.000208576 -5.48198e-08     -124.435 
          20     0.012017 -0.000207609   -9.087e-08     -124.435 
          20     0.017304 -0.000172821 -1.42415e-07     -124.435 
          20     0.023553 -0.000133441 -2.14877e-07     -124.435 
          20     0.030763 -0.000113721 -3.13278e-07     -124.435 
          20     0.038936 -0.000110764 -4.40907e-07     -124.435 
          20     0.048069 -9.63331e-05 -5.98594e-07     -124.435 
          20     0.058163 -5.52081e-05 -7.85612e-07     -124.435 
          20     0.069219 -2.73953e-05 -1.00072e-06     -124.435 
          20     0.081236 -1.71132e-05  -1.2388e-06     -124.435 
          20     0.094215  1.61627e-05 -1.49257e-06     -124.435 
          20     0.108155  3.84593e-05 -1.75546e-06     -124.435 
          20     0.123056  6.29124e-05 -2.01732e-06     -124.435 
          20     0.138918  8.51595e-05   -2.268e-06     -124.435 
          20     0.155744  0.000104167 -2.49721e-06     -124.435 
          20     0.173529  0.000120938 -2.69527e-06     -124.435 
          20     0.192276  0.000136415 -2.85416e-06     -124.435 
          20     0.211984  0.000149695 -2.96785e-06     -124.435 
          20     0.232655  0.000158908 -3.03217e-06     -124.435 
          20     0.254285   0.00016706 -3.04513e-06     -124.435 
          20     0.276877   0.00017197 -3.00896e-06     -124.435 
          20     0.300431  0.000174783 -2.92159e-06     -124.435 
          20     0.324946  0.000175579 -2.78805e-06     -124.435 
          20     0.350424   0.00017455 -2.60856e-06     -124.435 
          20     0.376861  0.000171993 -2.37758e-06     -124.435 
          20      0.40426  0.000168298 -2.08516e-06     -124.435 
          20     0.432621  0.000163914 -1.71702e-06     -124.435 
          20     0.461945  0.000159282 -1.25207e-06     -124.435 
          20     0.492228  0.000154815 -6.66499e-07     -124.434 
          20     0.523472  0.000150854  6.39073e-08     -124.434 
          20     0.555678  0.000147625  9.60673e-07     -124.434 
          20     0.588845    0.0001452  2.03923e-06     -124.434 
          20     0.622976  0.000143478   3.3058e-06     -124.434 
          20     0.658066  0.000142179  4.75414e-06     -124.434 
          20     0.694117  0.000140886   6.3645e-06     -124.434 
          20      0.73113  0.000139132  8.10384e-06     -124.434 
          20     0.769107  0.000136497  9.93319e-06     -124.434 
          20     0.808042  0.000132595  1.18174e-05     -124.434 
          20     0.847939  0.000127187  1.37224e-05     -124.434 
          20     0.888797   0.00012014  1.56188e-05     -124.434 
          20      0.93062  0.000111435  1.74811e-05     -124.434 
          20       0.9734  0.000101144  1.92872e-05     -124.434 
          20      1.01714  8.94098e-05  2.10257e-05     -124.434 
          20      1.06185  7.64149e-05  2.26895e-05     -124.434 
          20      1.10751  6.23346e-05  2.42699e-05     -124.433 
          20      1.15414  4.73356e-05  2.57637e-05     -124.433 
          20      1.20173  3.15628e-05   2.7167e-05     -124.433 
          20      1.25028  1.51442e-05  2.84748e-05     -124.433 
          20      1.29979 -1.82751e-06  2.96864e-05     -124.433 
          20      1.35026 -1.92523e-05  3.07986e-05     -124.433 
          20       1.4017 -3.70638e-05  3.18074e-05     -124.433 
          20      1.45409 -5.51965e-05   3.2709e-05     -124.433 
          20      1.50745 -7.35741e-05  3.35002e-05     -124.432 
          20      1.56176 -9.21086e-05   3.4179e-05     -124.432 
          20      1.61705  -0.00011071  3.47454e-05     -124.432 
          20      1.67329 -0.000129286  3.51998e-05     -124.432 
          20      1.73049 -0.000147701  3.55353e-05     -124.432 
          20      1.78865 -0.000165856  3.57601e-05     -124.432 
          20      1.84778 -0.000183619  3.58712e-05     -124.431 
          20      1.90786  -0.00020085  3.58694e-05     -124.431 
          20      1.96891 -0.000217416  3.57627e-05     -124.431 
          20      2.03092 -0.000233209  3.55534e-05     -124.431 
          20      2.09389 -0.000248107  3.52464e-05      -124.43 
          20      2.15782  -0.00026198  3.48542e-05      -124.43 
          20      2.22272 -0.000274774   3.4373e-05      -124.43 
          20      2.28857 -0.000286462  3.38003e-05      -124.43 
          20      2.35539 -0.000297041   3.3134e-05     -124.429 
          20      2.42317 -0.000306535  3.23718e-05     -124.429 
          20      2.49191 -0.000314975  3.15127e-05     -124.429 
          20      2.56161 -0.000322404  3.05603e-05     -124.429 
          20      2.63226 -0.000328857  2.95283e-05     -124.428 
          20      2.70389 -0.000334352  2.84499e-05     -124.428 
          20      2.77648 -0.000338779  2.74202e-05     -124.428 
          20      2.85002 -0.000342169   2.6432e-05     -124.427 
          20      2.92453 -0.000344523  2.55563e-05     -124.427 
          20            3 -0.000345871  2.48274e-05     -124.427 
          40            0           -0           -0     -121.879 
          40      0.00048 -2.63339e-05 -1.63346e-10     -121.879 
          40     0.001922 -9.27051e-05  -8.9052e-10     -121.879 
          40     0.004326 -0.000167843 -2.91447e-09     -121.879 
          40      0.00769 -0.000219255 -7.52187e-09     -121.879 
          40     0.012017 -0.000231578 -1.66393e-08     -121.879 
          40     0.017304 -0.000214697 -3.28822e-08     -121.879 
          40     0.023553 -0.000195568 -5.96104e-08     -121.879 
          40     0.030763 -0.000196433 -1.00902e-07     -121.879 
          40     0.038936  -0.00021414 -1.61549e-07     -121.879 
          40     0.048069 -0.000221819 -2.46967e-07     -121.879 
          40     0.058163 -0.000204737 -3.63235e-07     -121.879 
          40     0.069219  -0.00019971    -5.17e-07     -121.879 
          40     0.081236 -0.000210138 -7.15117e-07     -121.879 
          40     0.094215   -0.0001977 -9.64534e-07     -121.879 
          40     0.108155  -0.00019364 -1.27205e-06     -121.879 
          40     0.123056 -0.000185329 -1.64383e-06     -121.879 
          40     0.138918 -0.000176554 -2.08523e-06     -121.879 
          40     0.155744 -0.000168076 -2.60052e-06     -121.879 
          40     0.173529 -0.000158851 -3.19231e-06     -121.879 
          40     0.192276 -0.000148007 -3.86184e-06     -121.879 
          40     0.211984 -0.000136495 -4.60853e-06     -121.879 
          40     0.232655 -0.000126216 -5.43017e-06     -121.879 
          40     0.254285 -0.000114527 -6.32266e-06     -121.879 
          40     0.276877 -0.000103955 -7.28089e-06     -121.879 
          40     0.300431 -9.35437e-05 -8.29829e-06     -121.879 
          40     0.324946 -8.36137e-05 -9.36733e-06     -121.879 
          40     0.350424 -7.44001e-05 -1.04801e-05     -121.879 
          40     0.376861 -6.60555e-05 -1.16282e-05     -121.879 
          40      0.40426 -5.86549e-05 -1.28034e-05     -121.879 
          40     0.432621 -5.22181e-05 -1.39973e-05     -121.879 
          40     0.461945 -4.67314e-05 -1.52021e-05     -121.879 
          40     0.492228  -4.2171e-05 -1.64097e-05     -121.879 
          40     0.523472 -3.85118e-05 -1.76129e-05     -121.879 
          40     0.555678 -3.57156e-05 -1.88047e-05     -121.879 
          40     0.588845 -3.36723e-05 -1.99787e-05     -121.879 
          40     0.622976 -3.21911e-05  -2.1126e-05     -121.879 
          40     0.658066 -3.12883e-05 -2.22468e-05     -121.879 
          40     0.694117 -3.08013e-05 -2.33388e-05     -121.879 
          40      0.73113 -3.06487e-05 -2.43945e-05     -121.879 
          40     0.769107 -3.07878e-05 -2.54109e-05     -121.879 
          40     0.808042 -3.12143e-05 -2.63886e-05     -121.879 
          40     0.847939 -3.19596e-05 -2.73318e-05     -121.879 
          40     0.888797 -3.30848e-05 -2.82476e-05     -121.879 
          40      0.93062 -3.46738e-05 -2.91449e-05     -121.879 
          40       0.9734 -3.68229e-05  -3.0033e-05     -121.879 
          40      1.01714 -3.96303e-05 -3.09211e-05     -121.879 
          40      1.06185 -4.31826e-05 -3.18163e-05     -121.879 
          40      1.10751 -4.75431e-05 -3.27231e-05     -121.879 
          40      1.15414 -5.27395e-05 -3.36424e-05     -121.879 
          40      1.20173 -5.87529e-05 -3.45706e-05     -121.879 
          40      1.25028 -6.55146e-05 -3.55009e-05     -121.879 
          40      1.29979 -7.29049e-05  -3.6424e-05     -121.879 
          40      1.35026 -8.07645e-05 -3.73312e-05     -121.879 
          40       1.4017 -8.89128e-05 -3.82183e-05     -121.879 
          40      1.45409 -9.71904e-05 -3.90935e-05     -121.879 
          40      1.50745 -0.000105522 -3.99862e-05     -121.879 
          40      1.56176 -0.000114237 -4.08311e-05     -121.879 
          40      1.61705 -0.000122828 -4.15601e-05     -121.879 
          40      1.67329 -0.000131242 -4.21902e-05     -121.879 
          40      1.73049 -0.000139443 -4.27374e-05     -121.879 
          40      1.78865 -0.000147409 -4.32156e-05     -121.879 
          40      1.84778 -0.000155128 -4.36367e-05     -121.879 
          40      1.90786 -0.000162596 -4.40102e-05     -121.879 
          40      1.96891 -0.000169824 -4.43435e-05     -121.879 
          40      2.03092 -0.000176825 -4.46414e-05     -121.879 
          40      2.09389  -0.00018362 -4.49063e-05     -121.879 
          40      2.15782  -0.00019023  -4.5138e-05     -121.879 
          40      2.22272 -0.000196677 -4.53339e-05     -121.879 
          40      2.28857 -0.000202979  -4.5489e-05     -121.879 
          40      2.35539 -0.000209151 -4.55963e-05     -121.879 
          40      2.42317 -0.000215194 -4.56469e-05     -121.879 
          40      2.49191 -0.000221103 -4.56302e-05     -121.879 
          40      2.56161 -0.000226855 -4.55347e-05     -121.879 
          40      2.63226 -0.000232416  -4.5348e-05     -121.879 
          40      2.70389 -0.000237735  -4.5058e-05     -121.879 
          40      2.77648 -0.000242745 -4.46529e-05     -121.879 
          40      2.85002 -0.000247368 -4.41225e-05     -121.879 
          40      2.92453 -0.000251513 -4.34587e-05     -121.879 
          40            3 -0.000255086 -4.26565e-05     -121.879 
          60            0           -0           -0     -119.382 
          60      0.00048 -2.75176e-05 -1.04778e-10     -119.382 
          60     0.001922 -9.75078e-05 -1.22279e-09     -119.382 
          60     0.004326 -0.000178835 -5.78561e-09     -119.382 
          60      0.00769 -0.000239075 -1.78968e-08     -119.382 
          60     0.012017 -0.000262746 -4.34261e-08     -119.382 
          60     0.017304 -0.000259339  -9.0027e-08     -119.382 
          60     0.023553  -0.00025525 -1.67228e-07     -119.382 
          60     0.030763 -0.000272153 -2.86353e-07     -119.382 
          60     0.038936 -0.000306511 -4.60495e-07     -119.382 
          60     0.048069 -0.000331245  -7.0418e-07     -119.382 
          60     0.058163 -0.000331326 -1.03327e-06     -119.382 
          60     0.069219 -0.000342889 -1.46456e-06     -119.382 
          60     0.081236 -0.000368951 -2.01521e-06     -119.382 
          60     0.094215 -0.000371186 -2.70233e-06     -119.382 
          60     0.108155 -0.000380332 -3.54219e-06     -119.382 
          60     0.123056  -0.00038367 -4.55013e-06     -119.382 
          60     0.138918 -0.000384824 -5.73953e-06     -119.382 
          60     0.155744 -0.000384482 -7.12172e-06     -119.382 
          60     0.173529 -0.000381603 -8.70482e-06     -119.382 
          60     0.192276 -0.000375371  -1.0495e-05     -119.382 
          60     0.211984 -0.000366825 -1.24956e-05     -119.382 
          60     0.232655 -0.000357994 -1.47072e-05     -119.382 
          60     0.254285 -0.000346426 -1.71259e-05     -119.382 
          60     0.276877 -0.000334828 -1.97505e-05     -119.382 
          60     0.300431 -0.000322471 -2.25749e-05     -119.382 
          60     0.324946   -0.0003099 -2.55898e-05     -119.382 
          60     0.350424 -0.000297587 -2.87875e-05     -119.382 
          60     0.376861 -0.000285927 -3.21603e-05     -119.382 
          60      0.40426 -0.000275235 -3.57016e-05     -119.382 
          60     0.432621 -0.000265764 -3.94043e-05     -119.382 
          60     0.461945 -0.000257723   -4.326e-05     -119.382 
          60     0.492228 -0.000251293 -4.72585e-05     -119.382 
          60     0.523472 -0.000246629 -5.13893e-05     -119.382 
          60     0.555678 -0.000243836  -5.5643e-05     -119.382 
          60     0.588845 -0.000242898 -6.00156e-05     -119.382 
          60     0.622976 -0.000243575 -6.45035e-05     -119.382 
          60     0.658066 -0.000245978 -6.90602e-05     -119.382 
          60     0.694117 -0.000249851 -7.36771e-05     -119.382 
          60      0.73113 -0.000254761 -7.83407e-05     -119.382 
          60     0.769107 -0.000260281 -8.30321e-05     -119.382 
          60     0.808042 -0.000265999 -8.77269e-05     -119.382 
          60     0.847939 -0.000271533  -9.2399e-05     -119.382 
          60     0.888797 -0.000276541 -9.70198e-05     -119.382 
          60      0.93062 -0.000280736 -0.000101561     -119.382 
          60       0.9734 -0.000283893 -0.000105996     -119.382 
          60      1.01714 -0.000285858 -0.000110302     -119.382 
          60      1.06185 -0.000286559 -0.000114461     -119.382 
          60      1.10751 -0.000285999 -0.000118463     -119.382 
          60      1.15414 -0.000284264 -0.000122302     -119.382 
          60      1.20173 -0.000281509 -0.000125981     -119.382 
          60      1.25028 -0.000277943 -0.000129502     -119.382 
          60      1.29979 -0.000273812  -0.00013287     -119.382 