Variables = x, y, u, v, p

Zone, I=416, F=POINT
         -50            0            0            0      214.322 
         -50     0.013333  0.000423815  1.29882e-07      214.322 
         -50     0.053333  0.000383568  4.68817e-07      214.322 
         -50         0.12  0.000361704  1.25347e-06      214.322 
         -50     0.213332   0.00034175  2.62367e-06      214.321 
         -50     0.333332  0.000325277  4.57637e-06      214.321 
         -50         0.48  0.000313181   6.3974e-06      214.321 
         -50     0.653331  0.000306988  8.32614e-06       214.32 
         -50     0.853332  0.000307171  1.04266e-05      214.319 
         -50         1.08  0.000314694  1.18888e-05      214.318 
         -50      1.33333  0.000329741  1.33356e-05      214.315 
         -50      1.61333   0.00035045  1.50516e-05      214.313 
         -50         1.92  0.000375537  1.71131e-05      214.309 
         -50      2.25333  0.000391762   1.8252e-05      214.304 
         -50      2.61333  0.000392219  1.67899e-05      214.298 
         -50            3  0.000384653  1.38399e-05       214.29 
         -25            0  3.67076e-19   2.6924e-23       205.73 
         -25     0.013333  0.000303153  5.26124e-08       205.73 
         -25     0.053333  0.000259125  1.75877e-07       205.73 
         -25         0.12  0.000233221  2.89947e-07       205.73 
         -25     0.213332  0.000221795  8.26501e-08       205.73 
         -25     0.333332  0.000221867 -7.08997e-07       205.73 
         -25         0.48  0.000225302 -1.94872e-06       205.73 
         -25     0.653331   0.00023054 -3.39603e-06       205.73 
         -25     0.853332   0.00024089 -4.51028e-06      205.729 
         -25         1.08  0.000255981 -5.03222e-06      205.729 
         -25      1.33333  0.000269568 -5.05475e-06      205.728 
         -25      1.61333  0.000280091  -4.6365e-06      205.727 
         -25         1.92  0.000288308 -3.38555e-06      205.725 
         -25      2.25333  0.000293363 -1.96066e-06      205.724 
         -25      2.61333  0.000291814 -1.32763e-06      205.721 
         -25            3  0.000283567  -1.8214e-06      205.718 
           0            0  7.84343e-19 -9.77339e-19      198.693 
           0     0.013333  0.000713517 -0.000482692        198.7 
           0     0.053333  0.000487347 -0.000244582      198.713 
           0         0.12   0.00040086 -0.000171436      198.727 
           0     0.213332  0.000361393 -0.000131931      198.742 
           0     0.333332  0.000340374 -0.000107663      198.757 
           0         0.48  0.000323023  -8.9251e-05      198.772 
           0     0.653331  0.000309298 -7.50793e-05      198.787 
           0     0.853332  0.000295513 -6.39255e-05      198.801 
           0         1.08  0.000281714 -5.49602e-05      198.815 
           0      1.33333  0.000270944 -4.75173e-05      198.828 
           0      1.61333  0.000261277 -4.11886e-05      198.841 
           0         1.92  0.000249409 -3.58414e-05      198.853 
           0      2.25333  0.000237693 -3.15363e-05      198.864 
           0      2.61333  0.000225503  -2.7938e-05      198.874 
           0            3  0.000221606 -2.05061e-05      198.884 
          20            0           -0           -0      194.393 
          20     0.013333  0.000266307  6.52049e-08      194.393 
          20     0.053333  0.000284131  3.01432e-07      194.393 
          20         0.12  0.000311487  1.26557e-06      194.393 
          20     0.213332  0.000319831   3.8947e-06      194.393 
          20     0.333332  0.000310192  8.59599e-06      194.393 
          20         0.48  0.000287235  1.45426e-05      194.393 
          20     0.653331  0.000263168  2.12298e-05      194.393 
          20     0.853332  0.000254156   2.9258e-05      194.392 
          20         1.08   0.00024827  3.73956e-05      194.392 
          20      1.33333  0.000238473  4.41533e-05      194.391 
          20      1.61333  0.000229541  4.88611e-05      194.389 
          20         1.92  0.000225012  5.10995e-05      194.388 
          20      2.25333  0.000222775  5.09247e-05      194.385 
          20      2.61333  0.000223543  4.92741e-05      194.383 
          20            3  0.000227434  4.65661e-05       194.38 
          40            0           -0           -0      189.895 
          40     0.013333  0.000251071  4.93944e-08      189.895 
          40     0.053333  0.000283339  6.77046e-07      189.895 
          40         0.12  0.000305861  3.30489e-06      189.895 
          40     0.213332  0.000284956  9.50316e-06      189.895 
          40     0.333332  0.000241527  1.97133e-05      189.895 
          40         0.48  0.000211389  3.31816e-05      189.895 
          40     0.653331  0.000209907  4.88172e-05      189.895 
          40     0.853332  0.000222785  6.51791e-05      189.895 
          40         1.08  0.000228304  8.05753e-05      189.895 
          40      1.33333  0.000219932  9.34063e-05      189.895 
          40      1.61333  0.000206025  0.000102582      189.895 
          40         1.92  0.000196628  0.000106481      189.894 
          40      2.25333  0.000192945  0.000105596      189.894 
          40      2.61333  0.000200214  0.000100956      189.893 
          40            3  0.000214188  9.28498e-05      189.893 
          60            0           -0           -0      185.653 
          60     0.013333  0.000228873  6.86967e-08      185.653 
          60     0.053333  0.000225554  9.65203e-07      185.653 
          60         0.12  0.000204415  4.27962e-06      185.653 
          60     0.213332  0.000157016  1.10519e-05      185.653 
          60     0.333332  0.000115649  2.07492e-05      185.653 
          60         0.48  0.000104936  3.21591e-05      185.653 
          60     0.653331  0.000128183  4.46484e-05      185.653 
          60     0.853332  0.000169862  5.74836e-05      185.653 
          60         1.08  0.000198091  6.87288e-05      185.652 
          60      1.33333  0.000203331  7.68128e-05      185.652 
          60      1.61333  0.000203449  8.16282e-05      185.652 
          60         1.92   0.00020597  8.26069e-05      185.652 
          60      2.25333  0.000205868  7.95861e-05      185.652 
          60      2.61333  0.000202147  7.31898e-05      185.652 
          60            3  0.000195955    6.476e-05      185.651 
          80            0           -0           -0      181.544 
          80     0.013333  0.000207965  9.17073e-08      181.544 
          80     0.053333  0.000160881  1.28225e-06      181.544 
          80         0.12  7.95205e-05  5.39482e-06      181.544 
          80     0.213332 -2.22385e-05  1.31488e-05      181.544 
          80     0.333332 -9.88887e-05  2.33931e-05      181.544 
          80         0.48  -0.00012893   3.4663e-05      181.544 
          80     0.653331 -0.000112579  4.67585e-05      181.544 
          80     0.853332 -5.61126e-05   5.9981e-05      181.544 
          80         1.08  1.07039e-05   7.2831e-05      181.544 
          80      1.33333  6.05453e-05  8.31015e-05      181.544 
          80      1.61333  0.000107091  9.00096e-05      181.544 
          80         1.92  0.000161201  9.29876e-05      181.543 
          80      2.25333  0.000204085  9.17693e-05      181.543 
          80      2.61333  0.000235403  8.70352e-05      181.543 
          80            3  0.000259874  8.04367e-05      181.543 
         100            0  2.51438e-19  1.32904e-24      177.518 
         100     0.013333  0.000216329  6.85988e-08      177.518 
         100     0.053333  0.000204846  9.75162e-07      177.518 
         100         0.12  0.000174959  4.19773e-06      177.518 
         100     0.213332   0.00012036  1.05964e-05      177.518 
         100     0.333332  6.79553e-05  1.97655e-05      177.518 
         100         0.48  3.83886e-05  3.09103e-05      177.518 
         100     0.653331  4.01522e-05  4.38524e-05      177.518 
         100     0.853332  7.29079e-05  5.86044e-05      177.518 
         100         1.08  0.000114321  7.37961e-05      177.518 
         100      1.33333   0.00014003  8.71877e-05      177.518 
         100      1.61333  0.000160069  9.75203e-05      177.518 
         100         1.92  0.000183632  0.000103751      177.518 
         100      2.25333  0.000198941  0.000105217      177.518 
         100      2.61333  0.000205911  0.000102288      177.518 
         100            3   0.00020953   9.6474e-05      177.518 
         150            0           -0           -0      167.649 
         150     0.013333  0.000185436 -4.72423e-08      167.649 
         150     0.053333  0.000134657 -7.45953e-07      167.649 
         150         0.12  0.000123569 -3.51825e-06      167.649 
         150     0.213332  0.000160279 -9.73267e-06      167.649 
         150     0.333332  0.000217651 -1.96212e-05      167.649 
         150         0.48   0.00025918 -3.23279e-05      167.649 
         150     0.653331  0.000269856 -4.68822e-05      167.649 
         150     0.853332  0.000254553 -6.24791e-05      167.649 
         150         1.08  0.000231853 -7.78867e-05      167.649 
         150      1.33333  0.000217163 -9.15769e-05      167.649 
         150      1.61333  0.000206712 -0.000102511      167.649 
         150         1.92  0.000193348 -0.000109443      167.649 
         150      2.25333  0.000182474 -0.000111896      167.649 
         150      2.61333  0.000174741  -0.00010981      167.648 
         150            3  0.000169917 -0.000103789      167.648 
         200            0            0            0      157.902 
         200     0.013333  0.000185397 -8.57736e-08      157.902 
         200     0.053333  0.000148145 -1.30147e-06      157.902 
         200         0.12  0.000175663 -5.91276e-06      157.902 
         200     0.213332  0.000270307 -1.57836e-05      157.902 
         200     0.333332  0.000382499 -3.08567e-05      157.902 
         200         0.48  0.000458771 -4.95975e-05      157.902 
         200     0.653331  0.000481052 -7.06625e-05      157.902 
         200     0.853332  0.000455201 -9.33806e-05      157.902 
         200         1.08   0.00040293 -0.000116569      157.902 
         200      1.33333  0.000352147 -0.000138124      157.902 
         200      1.61333  0.000306928 -0.000156046      157.902 
         200         1.92  0.000254224 -0.000168661      157.902 
         200      2.25333   0.00020664 -0.000174735      157.902 
         200      2.61333  0.000167482 -0.000174077      157.902 
         200            3   0.00013549  -0.00016734      157.902 
         250            0           -0           -0      148.197 
         250     0.013333  0.000180349  6.71546e-10      148.197 
         250     0.053333  0.000106839 -1.08442e-08      148.197 
         250         0.12  3.34626e-05 -1.86005e-07      148.197 
         250     0.213332 -2.19376e-05 -9.62864e-07      148.197 
         250     0.333332 -4.69101e-05 -2.96708e-06      148.197 
         250         0.48 -4.72335e-05 -6.68854e-06      148.197 
         250     0.653331 -3.74673e-05 -1.22605e-05      148.197 
         250     0.853332 -2.90843e-05 -1.94693e-05      148.197 
         250         1.08  -2.0305e-05 -2.77038e-05      148.197 
         250      1.33333  1.29696e-06 -3.58566e-05      148.197 
         250      1.61333  3.84119e-05 -4.29805e-05      148.197 
         250         1.92  8.15738e-05 -4.86097e-05      148.197 
         250      2.25333  0.000124206 -5.22789e-05      148.197 
         250      2.61333  0.000162476 -5.38867e-05      148.197 
         250            3  0.000193592 -5.34761e-05      148.197 
         300            0            0            0      138.508 
         300     0.013333  0.000225261  3.40594e-08      138.508 
         300     0.053333  0.000258351  5.37583e-07      138.508 
         300         0.12   0.00028751  2.59636e-06      138.508 
         300     0.213332  0.000276495  7.44503e-06      138.508 
         300     0.333332  0.000232411  1.56652e-05      138.508 
         300         0.48  0.000183826  2.69356e-05      138.508 
         300     0.653331  0.000154305  4.05707e-05      138.508 
         300     0.853332  0.000150732  5.59802e-05      138.508 
         300         1.08  0.000164244  7.23581e-05      138.508 
         300      1.33333  0.000175359  8.83071e-05      138.508 
         300      1.61333  0.000176499   0.00010242      138.508 
         300         1.92  0.000176894  0.000113669      138.508 
         300      2.25333  0.000177178  0.000121112      138.508 
         300      2.61333  0.000177041  0.000124221      138.508 
         300            3  0.000176439  0.000122878      138.508 
         350            0           -0           -0      128.823 
         350     0.013333   0.00020493 -7.59956e-08      128.823 
         350     0.053333  0.000217409 -1.12989e-06      128.823 
         350         0.12  0.000298964 -5.00775e-06      128.823 
         350     0.213332  0.000429465 -1.29896e-05      128.823 
         350     0.333332    0.0005518 -2.45667e-05      128.823 
         350         0.48  0.000619145 -3.80048e-05      128.823 
         350     0.653331  0.000627647 -5.19681e-05      128.823 
         350     0.853332   0.00059452 -6.61415e-05      128.823 
         350         1.08  0.000537396 -8.03974e-05      128.823 
         350      1.33333  0.000473331 -9.40131e-05      128.823 
         350      1.61333  0.000410289 -0.000105917      128.823 
         350         1.92  0.000341314 -0.000115129      128.823 
         350      2.25333  0.000271569 -0.000120975      128.823 
         350      2.61333  0.000205951 -0.000122854      128.823 
         350            3  0.000148316 -0.000120593      128.823 
         400            0           -0           -0      119.139 
         400     0.013333  9.84925e-05 -1.49998e-08      119.139 
         400     0.053333 -0.000175993  -3.9586e-07      119.139 
         400         0.12 -0.000455709 -2.88747e-06      119.139 
         400     0.213332 -0.000610798 -1.10298e-05      119.139 
         400     0.333332 -0.000607213 -2.81262e-05      119.139 
         400         0.48 -0.000521518 -5.47875e-05      119.139 
         400     0.653331  -0.00044634 -8.89903e-05      119.139 
         400     0.853332 -0.000412518  -0.00012748      119.139 
         400         1.08 -0.000381046  -0.00016631      119.139 
         400      1.33333 -0.000305506 -0.000201936      119.139 
         400      1.61333  -0.00019681 -0.000232935      119.139 
         400         1.92 -8.35643e-05 -0.000258428      119.139 
         400      2.25333  3.01614e-05 -0.000276493      119.139 
         400      2.61333  0.000139835 -0.000285751      119.139 
         400            3  0.000236658 -0.000285477      119.139 
         450            0            0            0      109.456 
         450     0.013333   0.00019104  8.55486e-08      109.456 
         450     0.053333  0.000124574  1.23058e-06      109.456 
         450         0.12  1.41314e-05  5.19327e-06      109.456 
         450     0.213332 -0.000120417  1.27199e-05      109.456 
         450     0.333332 -0.000223356   2.2725e-05      109.456 
         450         0.48 -0.000266305  3.35385e-05      109.456 
         450     0.653331  -0.00025966  4.46135e-05      109.456 
         450     0.853332 -0.000217904  5.67859e-05      109.456 
         450         1.08 -0.000142988  7.10304e-05      109.456 
         450      1.33333  -5.3698e-05  8.66323e-05      109.456 
         450      1.61333  1.72464e-05  0.000101237      109.456 
         450         1.92   7.6159e-05  0.000113192      109.456 
         450      2.25333  0.000132792  0.000121885      109.456 
         450      2.61333  0.000186844  0.000126724      109.456 
         450            3  0.000232572  0.000127287      109.456 
         500            0           -0           -0      99.7731 
         500     0.013333  0.000251095  4.88753e-09      99.7731 
         500     0.053333  0.000359387  1.37481e-07      99.7731 
         500         0.12  0.000498133   1.0327e-06      99.7731 
         500     0.213332  0.000596918  4.01068e-06      99.7731 
         500     0.333332  0.000629435  1.03839e-05      99.7731 
         500         0.48  0.000616329  2.06066e-05      99.7731 
         500     0.653331  0.000595843  3.42602e-05      99.7731 
         500     0.853332  0.000588713  5.04255e-05      99.7731 
         500         1.08   0.00058404  6.75718e-05      99.7731 
         500      1.33333  0.000553354  8.37253e-05      99.7731 
         500      1.61333  0.000491641   9.7709e-05      99.7731 
         500         1.92  0.000420044   0.00010933      99.7731 
         500      2.25333  0.000345021  0.000118162      99.7731 
         500      2.61333  0.000269249  0.000123548      99.7731 
         500            3  0.000197557  0.000124966      99.7731 
         550            0            0            0      90.0893 
         550     0.013333  0.000237212  2.97802e-08      90.0893 
         550     0.053333  0.000299548  5.05817e-07      90.0893 
         550         0.12  0.000355823  2.67815e-06      90.0893 
         550     0.213332  0.000344636  8.40024e-06      90.0893 
         550     0.333332  0.000264658  1.90303e-05      90.0893 
         550         0.48  0.000163359  3.44302e-05      90.0893 
         550     0.653331  8.97814e-05  5.32433e-05      90.0893 
         550     0.853332  5.85121e-05  7.38694e-05      90.0893 
         550         1.08  5.40396e-05  9.48902e-05      90.0893 
         550      1.33333  5.58649e-05  0.000115198      90.0893 
         550      1.61333  6.05916e-05  0.000134237      90.0893 
         550         1.92   7.2638e-05  0.000151302      90.0893 
         550      2.25333   8.8849e-05   0.00016541      90.0893 
         550      2.61333  0.000107147   0.00017532      90.0893 
         550            3  0.000127105  0.000180129      90.0893 
         600            0           -0           -0       80.405 
         600     0.013333  0.000116878 -2.02096e-08       80.405 
         600     0.053333 -0.000113534 -4.01383e-07       80.405 
         600         0.12 -0.000351757 -2.47785e-06       80.405 
         600     0.213332 -0.000492911 -8.78758e-06       80.405 
         600     0.333332 -0.000496658 -2.19112e-05       80.405 
         600         0.48 -0.000410892  -4.2812e-05       80.405 
         600     0.653331 -0.000313013 -7.05242e-05       80.405 
         600     0.853332 -0.000250334 -0.000103185       80.405 
         600         1.08 -0.000222577 -0.000138737       80.405 
         600      1.33333 -0.000196242 -0.000174744       80.405 
         600      1.61333 -0.000142527  -0.00020877       80.405 
         600         1.92 -7.12763e-05 -0.000239093       80.405 
         600      2.25333  5.70601e-06 -0.000264355       80.405 
         600      2.61333  8.39508e-05 -0.000282852       80.405 
         600            3  0.000159691  -0.00029313       80.405 
         650            0            0            0       70.721 
         650     0.013333  0.000358588  -1.2586e-07       70.721 
         650     0.053333  0.000783506 -1.69217e-06       70.721 
         650         0.12   0.00138979 -6.29048e-06       70.721 
         650     0.213332   0.00195349 -1.23342e-05       70.721 
         650     0.333332   0.00227735  -1.4558e-05       70.721 
         650         0.48   0.00232765 -7.87147e-06       70.721 
         650     0.653331   0.00221761  8.73305e-06       70.721 
         650     0.853332   0.00206032  3.21393e-05       70.721 
         650         1.08   0.00188172  5.77362e-05       70.721 
         650      1.33333   0.00166512  8.24305e-05       70.721 
         650      1.61333   0.00141961  0.000105669       70.721 
         650         1.92   0.00116131   0.00012771       70.721 
         650      2.25333  0.000886879  0.000147493       70.721 
         650      2.61333  0.000601358  0.000163781       70.721 
         650            3  0.000321163  0.000175546       70.721 
         700            0           -0           -0       61.034 
         700     0.013333  5.06528e-05  2.91278e-07       61.034 
         700     0.053333 -0.000446851  4.15549e-06       61.034 
         700         0.12  -0.00123661  1.72999e-05       61.034 
         700     0.213332  -0.00211848  4.14541e-05       61.034 
         700     0.333332  -0.00279345  7.13614e-05       61.034 
         700         0.48  -0.00311016  9.91339e-05       61.034 
         700     0.653331  -0.00313651  0.000120974       61.034 
         700     0.853332  -0.00300026  0.000139286       61.034 
         700         1.08  -0.00273992  0.000159749       61.034 
         700      1.33333  -0.00235496  0.000185558       61.034 
         700      1.61333  -0.00191705   0.00021397       61.034 
         700         1.92  -0.00149323  0.000239685       61.034 
         700      2.25333  -0.00105793  0.000260572      61.0341 
         700      2.61333 -0.000601186  0.000275543      61.0341 
         700            3 -0.000147208  0.000283536      61.0341 
         750            0            0            0       51.349 
         750     0.013333  0.000205362 -3.11765e-07       51.349 
         750     0.053333  0.000292207 -4.63402e-06       51.349 
         750         0.12  0.000648882 -2.06302e-05       51.349 
         750     0.213332   0.00125753 -5.41812e-05       51.349 
         750     0.333332   0.00189882 -0.000104564       51.349 
         750         0.48   0.00234345 -0.000165741       51.349 
         750     0.653331   0.00252345 -0.000232186       51.349 
         750     0.853332   0.00248659 -0.000302749       51.349 
         750         1.08   0.00227868 -0.000379336       51.349 
         750      1.33333   0.00195034 -0.000461758       51.349 
         750      1.61333   0.00160822 -0.000544384       51.349 
         750         1.92   0.00131777 -0.000620024       51.349 
         750      2.25333   0.00103465 -0.000683958       51.349 
         750      2.61333  0.000737399  -0.00073299       51.349 
         750            3  0.000439253 -0.000764016      51.3489 
         800            0           -0           -0      41.6612 
         800     0.013333  0.000377213  1.52361e-07      41.6612 
         800     0.053333  0.000766969  2.45944e-06      41.6612 
         800         0.12   0.00112763  1.22843e-05      41.6612 
         800     0.213332   0.00122212  3.66822e-05      41.6612 
         800     0.333332   0.00103208   8.0406e-05      41.6612 
         800         0.48    0.0007251  0.000143117      41.6612 
         800     0.653331  0.000484689  0.000220849      41.6612 
         800     0.853332  0.000393301  0.000309415      41.6612 
         800         1.08  0.000433578  0.000405357      41.6612 
         800      1.33333  0.000516328   0.00050406      41.6612 
         800      1.61333  0.000537349  0.000599228      41.6612 
         800         1.92  0.000487312  0.000685825      41.6612 
         800      2.25333  0.000416332  0.000760345      41.6612 
         800      2.61333  0.000346607  0.000819031      41.6612 
         800            3  0.000275382  0.000858061      41.6612 
         850            0           -0           -0      31.9729 
         850     0.013333  4.34854e-05  9.12222e-08      31.9729 
         850     0.053333 -0.000414945  1.18494e-06      31.9729 
         850         0.12   -0.0010173  4.11122e-06      31.9729 
         850     0.213332  -0.00156511   6.9772e-06      31.9729 
         850     0.333332   -0.0018882  5.21444e-06      31.9729 
         850         0.48  -0.00196764 -5.13154e-06      31.9729 
         850     0.653331  -0.00191041 -2.45835e-05      31.9729 
         850     0.853332  -0.00182386 -5.03658e-05      31.9729 
         850         1.08  -0.00172579 -7.79592e-05      31.9729 
         850      1.33333  -0.00156549 -0.000102941      31.9729 
         850      1.61333   -0.0013232 -0.000123221      31.9729 
         850         1.92  -0.00105025 -0.000139955      31.9729 
         850      2.25333 -0.000770899 -0.000153886      31.9729 
         850      2.61333 -0.000484768  -0.00016478       31.973 
         850            3 -0.000190753 -0.000171795       31.973 
         900            0           -0           -0       22.286 
         900     0.013333   0.00020325 -1.42457e-07       22.286 
         900     0.053333  0.000232418 -2.11259e-06       22.286 
         900         0.12   0.00039184 -9.37787e-06       22.286 
         900     0.213332  0.000670063 -2.45666e-05       22.286 
         900     0.333332  0.000966668 -4.73376e-05       22.286 
         900         0.48   0.00117599 -7.50171e-05       22.286 
         900     0.653331   0.00126694 -0.000105236       22.286 
         900     0.853332   0.00126078 -0.000137715       22.286 
         900         1.08   0.00117279 -0.000173794       22.286 
         900      1.33333   0.00101495 -0.000214019       22.286 
         900      1.61333  0.000838284 -0.000256022       22.286 
         900         1.92  0.000698967  -0.00029556       22.286 
         900      2.25333  0.000577351 -0.000330312       22.286 
         900      2.61333  0.000453443 -0.000358601       22.286 
         900            3  0.000326012 -0.000378906       22.286 
         950            0           -0           -0       12.597 
         950     0.013333  0.000260428  3.58419e-08       12.597 
         950     0.053333  0.000383404  5.90863e-07       12.597 
         950         0.12  0.000519876  3.02383e-06       12.597 
         950     0.213332  0.000588078  9.23094e-06       12.597 
         950     0.333332  0.000570803     2.06e-05       12.597 
         950         0.48  0.000508179  3.71885e-05       12.597 
         950     0.653331  0.000452944  5.80525e-05       12.597 
         950     0.853332  0.000433356  8.21723e-05       12.597 
         950         1.08  0.000450441  0.000108759       12.597 
         950      1.33333  0.000479891  0.000136524       12.597 
         950      1.61333  0.000482735  0.000163185       12.597 
         950         1.92  0.000444509  0.000186979       12.597 
         950      2.25333  0.000393109  0.000207277       12.597 
         950      2.61333  0.000342278  0.000223566       12.597 
         950            3   0.00028995  0.000235038       12.597 
        1000            0           -0           -0      2.90689 
        1000     0.013333  0.000181106  2.97581e-08      2.90689 
        1000     0.053333  9.79786e-05  4.12532e-07      2.90689 
        1000         0.12 -1.21631e-05  1.66036e-06      2.90689 
        1000     0.213332 -0.000130909   3.7859e-06      2.90689 
        1000     0.333332 -0.000222033  6.04338e-06      2.90689 
        1000         0.48 -0.000265289  7.46686e-06      2.90689 
        1000     0.653331 -0.000267394  7.62086e-06      2.90689 
        1000     0.853332 -0.000248173  6.81865e-06      2.90689 
        1000         1.08 -0.000218113  5.82023e-06      2.90689 
        1000      1.33333 -0.000175349  5.33022e-06      2.90689 
        1000      1.61333 -0.000119749  5.56026e-06      2.90689 
        1000         1.92 -6.06033e-05   6.1276e-06       2.9069 
        1000      2.25333 -2.24271e-06   6.5962e-06       2.9069 
        1000      2.61333  5.61253e-05   6.7637e-06       2.9069 
        1000            3  0.000115589  6.59534e-06       2.9069 
