Variables = x, y, u, v, p

Zone, I=416, F=POINT
         -50            0            0            0     -39.3511 
         -50     0.013333 -2.76804e-06 -2.25039e-08     -39.3511 
         -50     0.053333 -7.89368e-06 -1.16959e-07     -39.3511 
         -50         0.12 -1.43166e-05 -4.69137e-07      -39.351 
         -50     0.213332 -1.88292e-05  -1.1841e-06      -39.351 
         -50     0.333332 -2.40402e-05 -1.87063e-06      -39.351 
         -50         0.48 -3.11727e-05 -2.90363e-06     -39.3509 
         -50     0.653331 -3.72658e-05 -4.35196e-06     -39.3508 
         -50     0.853332 -3.86505e-05 -4.76145e-06     -39.3506 
         -50         1.08 -3.55196e-05   -4.972e-06     -39.3503 
         -50      1.33333 -3.07772e-05 -4.94123e-06     -39.3499 
         -50      1.61333 -2.65006e-05 -4.75852e-06     -39.3494 
         -50         1.92 -1.89264e-05 -3.15198e-06     -39.3487 
         -50      2.25333 -1.24168e-05 -2.16683e-06     -39.3478 
         -50      2.61333 -1.13562e-05 -2.69259e-06     -39.3467 
         -50            3 -1.21644e-05 -3.07633e-06     -39.3453 
         -25            0  2.30232e-21 -2.94643e-24     -37.7992 
         -25     0.013333  -2.2957e-06 -5.91355e-09     -37.7992 
         -25     0.053333 -6.06214e-06 -4.38769e-08     -37.7992 
         -25         0.12 -6.50958e-06 -2.74611e-07     -37.7992 
         -25     0.213332  3.05402e-06 -9.73179e-07     -37.7992 
         -25     0.333332  1.96572e-05 -2.32636e-06     -37.7991 
         -25         0.48  3.47501e-05 -4.20875e-06     -37.7991 
         -25     0.653331  4.22038e-05 -6.42693e-06     -37.7991 
         -25     0.853332  4.03665e-05 -8.97755e-06      -37.799 
         -25         1.08  3.12618e-05 -1.15329e-05     -37.7989 
         -25      1.33333  1.93848e-05 -1.38701e-05     -37.7987 
         -25      1.61333  6.17263e-06 -1.56641e-05     -37.7985 
         -25         1.92 -5.37974e-06 -1.63468e-05     -37.7983 
         -25      2.25333 -1.50061e-05 -1.57567e-05      -37.798 
         -25      2.61333 -2.02616e-05 -1.39671e-05     -37.7975 
         -25            3 -1.88392e-05 -1.15909e-05      -37.797 
           0            0            0            0     -36.5157 
           0     0.013333  2.22126e-05 -8.58353e-06     -36.5168 
           0     0.053333  2.19857e-06 -3.11746e-06     -36.5191 
           0         0.12 -5.91158e-07  2.82191e-07     -36.5218 
           0     0.213332  7.05339e-06  7.38428e-08     -36.5247 
           0     0.333332  1.87751e-05  -8.0982e-07     -36.5276 
           0         0.48  2.81411e-05 -1.93981e-06     -36.5306 
           0     0.653331  3.13763e-05 -3.45824e-06     -36.5335 
           0     0.853332  2.66352e-05 -5.42416e-06     -36.5364 
           0         1.08  1.73298e-05 -7.62755e-06     -36.5392 
           0      1.33333  7.86324e-06 -9.57754e-06     -36.5419 
           0      1.61333 -3.28326e-06 -1.10195e-05     -36.5445 
           0         1.92 -1.47273e-05 -1.16371e-05      -36.547 
           0      2.25333 -1.90553e-05 -1.08689e-05     -36.5494 
           0      2.61333 -1.83465e-05 -1.00621e-05     -36.5516 
           0            3 -2.59176e-05 -1.34023e-05     -36.5537 
          20            0 -1.56235e-05 -0.000168968     -35.7581 
          20     0.013333 -2.86183e-05 -0.000168245     -35.7581 
          20     0.053333 -6.79624e-05 -0.000165652     -35.7581 
          20         0.12 -0.000133439 -0.000159848     -35.7581 
          20     0.213332 -0.000219892 -0.000148417     -35.7581 
          20     0.333332 -0.000309484 -0.000127995      -35.758 
          20         0.48 -0.000374425  -9.5212e-05     -35.7579 
          20     0.653331 -0.000401626 -4.97502e-05     -35.7579 
          20     0.853332 -0.000405652  4.17715e-06     -35.7578 
          20         1.08 -0.000409763  6.04484e-05     -35.7577 
          20      1.33333 -0.000412038  0.000113896     -35.7575 
          20      1.61333 -0.000403583  0.000160395     -35.7574 
          20         1.92 -0.000381652  0.000196242     -35.7572 
          20      2.25333 -0.000343794  0.000219894      -35.757 
          20      2.61333 -0.000296174  0.000231918     -35.7568 
          20            3 -0.000249107   0.00023456     -35.7565 
          40            0           -0           -0     -34.9889 
          40     0.013333  0.000666782 -3.15999e-07     -34.9889 
          40     0.053333   0.00232364  -2.4179e-06     -34.9889 
          40         0.12   0.00408596  2.72228e-06     -34.9889 
          40     0.213332    0.0051926   4.3546e-05     -34.9889 
          40     0.333332   0.00551381  0.000137313     -34.9888 
          40         0.48   0.00512282  0.000261085     -34.9888 
          40     0.653331   0.00449689  0.000412935     -34.9887 
          40     0.853332   0.00419904  0.000634916     -34.9886 
          40         1.08   0.00369081  0.000885976     -34.9885 
          40      1.33333   0.00265832   0.00109967     -34.9884 
          40      1.61333   0.00138724   0.00124499     -34.9882 
          40         1.92  0.000171328   0.00130991      -34.988 
          40      2.25333 -0.000779529   0.00129565     -34.9877 
          40      2.61333   -0.0013525   0.00121797     -34.9874 
          40            3  -0.00156831   0.00110152     -34.9869 
          60            0           -0           -0      -34.209 
          60     0.013333  0.000468497  2.15406e-07      -34.209 
          60     0.053333   0.00154812  4.46677e-06      -34.209 
          60         0.12   0.00248672  2.69853e-05      -34.209 
          60     0.213332   0.00275959  8.90037e-05      -34.209 
          60     0.333332   0.00252795  0.000202606      -34.209 
          60         0.48   0.00232907  0.000365016      -34.209 
          60     0.653331   0.00248837   0.00056489      -34.209 
          60     0.853332   0.00279048  0.000777518      -34.209 
          60         1.08   0.00272907  0.000970362      -34.209 
          60      1.33333   0.00212698   0.00111931      -34.209 
          60      1.61333   0.00124955   0.00121683      -34.209 
          60         1.92   0.00037979   0.00124832      -34.209 
          60      2.25333 -0.000287128   0.00121394      -34.209 
          60      2.61333 -0.000695422   0.00113241      -34.209 
          60            3 -0.000906865    0.0010195      -34.209 
          80            0           -0           -0     -33.4667 
          80     0.013333  0.000308355  6.80334e-08     -33.4667 
          80     0.053333   0.00104795  1.86164e-06     -33.4667 
          80         0.12   0.00175797  1.33663e-05     -33.4667 
          80     0.213332   0.00205409  4.89891e-05     -33.4667 
          80     0.333332   0.00197037  0.000118918     -33.4667 
          80         0.48   0.00184917  0.000221098     -33.4667 
          80     0.653331   0.00191801  0.000342518     -33.4667 
          80     0.853332   0.00199863   0.00045895     -33.4667 
          80         1.08   0.00175513  0.000546368     -33.4667 
          80      1.33333   0.00127022   0.00059976     -33.4667 
          80      1.61333  0.000770204  0.000630249     -33.4667 
          80         1.92  0.000278565  0.000635393     -33.4667 
          80      2.25333 -0.000119745  0.000613451     -33.4667 
          80      2.61333 -0.000385845  0.000570967     -33.4667 
          80            3 -0.000536477  0.000513078     -33.4667 
         100            0           -0           -0     -32.7419 
         100     0.013333  0.000220151  2.68481e-07     -32.7419 
         100     0.053333  0.000688575  4.64725e-06     -32.7419 
         100         0.12  0.000989143  2.43739e-05     -32.7419 
         100     0.213332  0.000888227  7.31528e-05     -32.7419 
         100     0.333332  0.000560597  0.000155504     -32.7419 
         100         0.48  0.000344989  0.000264105     -32.7419 
         100     0.653331  0.000382376  0.000385813     -32.7418 
         100     0.853332  0.000453224  0.000500032     -32.7418 
         100         1.08  0.000250797  0.000585285     -32.7418 
         100      1.33333 -1.04321e-05  0.000642657     -32.7418 
         100      1.61333 -9.23937e-05  0.000683929     -32.7418 
         100         1.92 -0.000138146  0.000699391     -32.7418 
         100      2.25333 -0.000178079  0.000684224     -32.7418 
         100      2.61333 -0.000193991  0.000643483     -32.7418 
         100            3 -0.000188528  0.000584212     -32.7418 
         150            0            0            0     -30.9659 
         150     0.013333 -7.06438e-05 -7.75852e-07     -30.9659 
         150     0.053333 -5.66168e-05 -1.15295e-05     -30.9659 
         150         0.12  0.000391955 -5.07585e-05     -30.9659 
         150     0.213332   0.00121627 -0.000129934     -30.9659 
         150     0.333332   0.00197533 -0.000242662     -30.9659 
         150         0.48   0.00233934  -0.00037482     -30.9659 
         150     0.653331   0.00225542 -0.000519877     -30.9659 
         150     0.853332   0.00182144  -0.00067504     -30.9659 
         150         1.08   0.00132395 -0.000824532     -30.9659 
         150      1.33333   0.00099316 -0.000947862     -30.9659 
         150      1.61333  0.000706035  -0.00103757     -30.9659 
         150         1.92   0.00033679  -0.00108757     -30.9659 
         150      2.25333  1.48357e-05  -0.00109282     -30.9659 
         150      2.61333 -0.000224125  -0.00105484      -30.966 
         150            3 -0.000393697 -0.000982041      -30.966 
         200            0           -0           -0     -29.2131 
         200     0.013333 -6.91886e-05 -1.00055e-07     -29.2131 
         200     0.053333 -0.000208955 -1.69283e-06     -29.2131 
         200         0.12 -0.000269444 -8.84403e-06     -29.2131 
         200     0.213332  -0.00015206 -2.70022e-05     -29.2131 
         200     0.333332  8.50899e-05 -5.88781e-05     -29.2131 
         200         0.48   0.00029739 -0.000102054     -29.2131 
         200     0.653331   0.00040408 -0.000151103     -29.2131 
         200     0.853332  0.000434454 -0.000200348     -29.2131 
         200         1.08  0.000432887 -0.000246667     -29.2131 
         200      1.33333  0.000382194 -0.000290565     -29.2131 
         200      1.61333  0.000301246 -0.000330164     -29.2131 
         200         1.92   0.00021537  -0.00035983     -29.2131 
         200      2.25333   0.00013355 -0.000376592     -29.2131 
         200      2.61333  5.47342e-05 -0.000379682     -29.2131 
         200            3 -1.65742e-05  -0.00036974     -29.2131 
         250            0 -2.31777e-20 -2.65503e-27     -27.4671 
         250     0.013333 -4.43276e-05   2.3053e-07     -27.4671 
         250     0.053333 -0.000221663  3.40681e-06     -27.4671 
         250         0.12  -0.00057936  1.48465e-05     -27.4671 
         250     0.213332  -0.00102555  3.72711e-05     -27.4671 
         250     0.333332  -0.00136868  6.71565e-05     -27.4671 
         250         0.48  -0.00149725  9.81113e-05     -27.4671 
         250     0.653331  -0.00143766  0.000126724     -27.4671 
         250     0.853332  -0.00127251  0.000152298     -27.4671 
         250         1.08  -0.00109143  0.000172618     -27.4671 
         250      1.33333 -0.000919442  0.000186392     -27.4671 
         250      1.61333  -0.00071126  0.000195142     -27.4671 
         250         1.92 -0.000464218  0.000198607     -27.4671 
         250      2.25333 -0.000220672  0.000195943      -27.467 
         250      2.61333 -2.35344e-06  0.000186944      -27.467 
         250            3  0.000177533  0.000172634      -27.467 
         300            0           -0           -0     -25.7227 
         300     0.013333 -7.00437e-05  3.41067e-07     -25.7227 
         300     0.053333 -0.000332419   4.8339e-06     -25.7227 
         300         0.12 -0.000822146  1.99617e-05     -25.7227 
         300     0.213332  -0.00139746  4.77122e-05     -25.7227 
         300     0.333332  -0.00184044  8.33395e-05     -25.7227 
         300         0.48  -0.00206274  0.000120852     -25.7227 
         300     0.653331  -0.00210755  0.000158987     -25.7227 
         300     0.853332  -0.00199412  0.000202036     -25.7227 
         300         1.08  -0.00169613  0.000254384     -25.7227 
         300      1.33333  -0.00130697  0.000312097     -25.7227 
         300      1.61333 -0.000958863  0.000364428     -25.7227 
         300         1.92 -0.000607667  0.000405595     -25.7227 
         300      2.25333 -0.000269183  0.000433224     -25.7226 
         300      2.61333  3.44357e-05  0.000445059     -25.7226 
         300            3  0.000284544   0.00044076     -25.7226 
         350            0            0            0     -23.9777 
         350     0.013333  0.000137887  5.55807e-08     -23.9777 
         350     0.053333  0.000468879  1.06087e-06     -23.9777 
         350         0.12  0.000786996  6.26905e-06     -23.9777 
         350     0.213332  0.000904795  2.12798e-05     -23.9777 
         350     0.333332  0.000796274  5.07838e-05     -23.9777 
         350         0.48  0.000589996  9.51411e-05     -23.9777 
         350     0.653331  0.000424213  0.000150878     -23.9777 
         350     0.853332  0.000343594  0.000213278     -23.9777 
         350         1.08  0.000304888  0.000277402     -23.9777 
         350      1.33333  0.000249837  0.000338547     -23.9777 
         350      1.61333  0.000171867  0.000393329     -23.9777 
         350         1.92  9.23289e-05  0.000438251     -23.9777 
         350      2.25333  1.49262e-05   0.00046974     -23.9778 
         350      2.61333 -5.49655e-05  0.000485299     -23.9778 
         350            3 -0.000109937  0.000483937     -23.9778 
         400            0           -0           -0     -22.2332 
         400     0.013333  1.87186e-06 -4.31436e-07     -22.2332 
         400     0.053333  0.000123773 -6.36602e-06     -22.2332 
         400         0.12  0.000539329  -2.7917e-05     -22.2332 
         400     0.213332   0.00119595 -7.16366e-05     -22.2332 
         400     0.333332   0.00181362 -0.000134485     -22.2332 
         400         0.48   0.00216714 -0.000207974     -22.2332 
         400     0.653331   0.00222774 -0.000287065     -22.2332 
         400     0.853332    0.0020499 -0.000372433     -22.2332 
         400         1.08   0.00170752 -0.000463937     -22.2332 
         400      1.33333   0.00133856 -0.000554881     -22.2332 
         400      1.61333    0.0010303 -0.000636056     -22.2332 
         400         1.92  0.000721033  -0.00070185     -22.2332 
         400      2.25333  0.000407633 -0.000747661     -22.2332 
         400      2.61333   0.00010732 -0.000769872     -22.2332 
         400            3 -0.000158886  -0.00076684     -22.2333 
         450            0 -7.40335e-20  4.58104e-28     -20.4893 
         450     0.013333 -0.000201877 -3.13075e-07     -20.4893 
         450     0.053333  -0.00062153 -5.00443e-06     -20.4893 
         450         0.12 -0.000862187 -2.44554e-05     -20.4893 
         450     0.213332 -0.000678546  -7.0486e-05     -20.4893 
         450     0.333332 -0.000202052 -0.000147688     -20.4893 
         450         0.48  0.000239353  -0.00025079     -20.4893 
         450     0.653331  0.000430547 -0.000371239     -20.4893 
         450     0.853332  0.000357387 -0.000502455     -20.4893 
         450         1.08  0.000164815 -0.000636398     -20.4893 
         450      1.33333  6.12501e-05 -0.000761023     -20.4893 
         450      1.61333  8.36313e-05 -0.000867819     -20.4893 
         450         1.92  9.89425e-05 -0.000953876     -20.4893 
         450      2.25333  9.66617e-05  -0.00101419     -20.4893 
         450      2.61333  8.90207e-05  -0.00104382     -20.4893 
         450            3  7.73376e-05  -0.00103991     -20.4893 
         500            0           -0           -0     -18.7449 
         500     0.013333 -0.000158445  2.02251e-07     -18.7449 
         500     0.053333 -0.000611268  2.67788e-06     -18.7449 
         500         0.12  -0.00123566   9.7602e-06     -18.7449 
         500     0.213332  -0.00178659  1.89884e-05     -18.7449 
         500     0.333332  -0.00207297  2.37104e-05     -18.7449 
         500         0.48  -0.00211397  1.93665e-05     -18.7449 
         500     0.653331   -0.0020518  7.55199e-06     -18.7449 
         500     0.853332  -0.00195389 -5.18906e-06     -18.7449 
         500         1.08  -0.00175579 -1.08361e-05     -18.7449 
         500      1.33333  -0.00142135 -5.86644e-06     -18.7449 
         500      1.61333  -0.00106163  4.87934e-06     -18.7449 
         500         1.92 -0.000742826  1.55709e-05     -18.7449 
         500      2.25333 -0.000434526  2.55584e-05     -18.7449 
         500      2.61333 -0.000131573  3.45598e-05     -18.7448 
         500            3  0.000141626  4.21135e-05     -18.7448 
         550            0           -0           -0     -16.9984 
         550     0.013333  9.72017e-05  2.54038e-07     -16.9984 
         550     0.053333  0.000272987  3.90808e-06     -16.9984 
         550         0.12  0.000293902  1.82088e-05     -16.9984 
         550     0.213332   5.4526e-05  5.01393e-05     -16.9984 
         550     0.333332 -0.000320953  0.000101145     -16.9984 
         550         0.48 -0.000624964  0.000166943     -16.9984 
         550     0.653331 -0.000745463  0.000242644     -16.9984 
         550     0.853332 -0.000678008  0.000326118     -16.9984 
         550         1.08 -0.000484365  0.000415225     -16.9984 
         550      1.33333 -0.000297896  0.000503352     -16.9984 
         550      1.61333 -0.000213866  0.000582328     -16.9984 
         550         1.92 -0.000164843  0.000648346     -16.9984 
         550      2.25333 -0.000109695  0.000698721     -16.9984 
         550      2.61333 -4.86612e-05  0.000730026     -16.9984 
         550            3  7.76661e-06  0.000739359     -16.9984 
         600            0            0            0     -15.2507 
         600     0.013333  3.93243e-05 -1.28057e-07     -15.2507 
         600     0.053333  0.000177236 -1.82002e-06     -15.2507 
         600         0.12   0.00042307 -7.56514e-06     -15.2507 
         600     0.213332   0.00071732  -1.8275e-05     -15.2507 
         600     0.333332  0.000960274 -3.23057e-05     -15.2507 
         600         0.48    0.0011006 -4.71989e-05     -15.2507 
         600     0.653331    0.0011574 -6.18616e-05     -15.2507 
         600     0.853332   0.00115879 -7.74089e-05     -15.2507 
         600         1.08   0.00108638 -9.67253e-05     -15.2507 
         600      1.33333  0.000920892 -0.000121554     -15.2507 
         600      1.61333  0.000723412 -0.000148974     -15.2507 
         600         1.92   0.00055118 -0.000174104     -15.2507 
         600      2.25333  0.000383541 -0.000195191     -15.2507 
         600      2.61333  0.000211172 -0.000210993     -15.2508 
         600            3  4.59966e-05  -0.00022046     -15.2508 
         650            0            0            0      -13.502 
         650     0.013333  0.000220111 -4.80761e-08      -13.502 
         650     0.053333  0.000797817 -4.24704e-07      -13.502 
         650         0.12   0.00148606  1.42832e-07      -13.502 
         650     0.213332   0.00196648  7.24872e-06      -13.502 
         650     0.333332   0.00205453   2.9081e-05      -13.502 
         650         0.48   0.00183006  7.04441e-05      -13.502 
         650     0.653331   0.00151553  0.000129171      -13.502 
         650     0.853332   0.00125512  0.000198302      -13.502 
         650         1.08   0.00104549  0.000270464      -13.502 
         650      1.33333  0.000844627  0.000341548      -13.502 
         650      1.61333  0.000659297  0.000410801      -13.502 
         650         1.92   0.00048701  0.000476422      -13.502 
         650      2.25333  0.000308339  0.000534236      -13.502 
         650      2.61333  0.000124323  0.000579964      -13.502 
         650            3 -5.01649e-05  0.000610253      -13.502 
         700            0           -0           -0     -11.7542 
         700     0.013333  -0.00040141   3.1881e-07     -11.7542 
         700     0.053333  -0.00153888  4.28342e-06     -11.7542 
         700         0.12  -0.00312908  1.59681e-05     -11.7542 
         700     0.213332  -0.00463894  3.17681e-05     -11.7542 
         700     0.333332  -0.00558128  3.93967e-05     -11.7542 
         700         0.48  -0.00586055  2.69191e-05     -11.7542 
         700     0.653331  -0.00573829 -8.51826e-06     -11.7542 
         700     0.853332  -0.00548791 -6.01073e-05     -11.7542 
         700         1.08  -0.00514758 -0.000115548     -11.7542 
         700      1.33333  -0.00460908 -0.000163923     -11.7542 
         700      1.61333  -0.00388944 -0.000202812     -11.7542 
         700         1.92   -0.0031283 -0.000236796     -11.7541 
         700      2.25333  -0.00233152 -0.000266532     -11.7541 
         700      2.61333  -0.00149911 -0.000290257     -11.7541 
         700            3 -0.000670149 -0.000306012      -11.754 
         750            0           -0           -0     -10.0003 
         750     0.013333 -5.29726e-05 -4.01618e-07     -10.0003 
         750     0.053333 -6.52408e-05  -6.0324e-06     -10.0003 
         750         0.12  0.000231972 -2.73347e-05     -10.0003 
         750     0.213332  0.000916006 -7.35806e-05     -10.0003 
         750     0.333332   0.00176079  -0.00014632     -10.0003 
         750         0.48     0.002451 -0.000239421     -10.0003 
         750     0.653331   0.00282904 -0.000345245     -10.0003 
         750     0.853332   0.00290633 -0.000460091     -10.0003 
         750         1.08   0.00273432 -0.000584228     -10.0003 
         750      1.33333   0.00237249 -0.000717072     -10.0003 
         750      1.61333   0.00194177 -0.000852422     -10.0003 
         750         1.92   0.00155377 -0.000979775     -10.0003 
         750      2.25333   0.00117787  -0.00109084     -10.0004 
         750      2.61333  0.000789509  -0.00117892     -10.0004 
         750            3  0.000399062  -0.00123825     -10.0004 
         800            0  2.30326e-19  -3.3882e-27       -8.247 
         800     0.013333  0.000314375  4.48143e-08       -8.247 
         800     0.053333   0.00111773  1.01565e-06       -8.247 
         800         0.12   0.00203722  6.91119e-06       -8.247 
         800     0.213332   0.00266194  2.60311e-05       -8.247 
         800     0.333332   0.00280647   6.7306e-05       -8.247 
         800         0.48    0.0026052  0.000134404       -8.247 
         800     0.653331   0.00233221   0.00022419       -8.247 
         800     0.853332   0.00216587  0.000329931       -8.247 
         800         1.08   0.00209884  0.000443615       -8.247 
         800      1.33333   0.00199732  0.000556575       -8.247 
         800      1.61333   0.00176667  0.000661816     -8.24701 
         800         1.92   0.00145492  0.000756516     -8.24701 
         800      2.25333   0.00111787  0.000838101     -8.24702 
         800      2.61333  0.000770164  0.000902332     -8.24704 
         800            3  0.000414281  0.000944689     -8.24706 
         850            0            0            0     -6.49385 
         850     0.013333 -0.000112877   1.4904e-07     -6.49385 
         850     0.053333  -0.00044986  2.06347e-06     -6.49385 
         850         0.12 -0.000962328   8.1937e-06     -6.49385 
         850     0.213332  -0.00150327  1.84628e-05     -6.49385 
         850     0.333332  -0.00190989  2.95668e-05     -6.49386 
         850         0.48  -0.00212731  3.79261e-05     -6.49386 
         850     0.653331  -0.00221604  4.26212e-05     -6.49386 
         850     0.853332  -0.00224638  4.58397e-05     -6.49386 
         850         1.08  -0.00220555  5.21609e-05     -6.49386 
         850      1.33333  -0.00202232   6.6343e-05     -6.49386 
         850      1.61333  -0.00170664  8.89599e-05     -6.49386 
         850         1.92  -0.00137933  0.000114641     -6.49385 
         850      2.25333  -0.00106472  0.000139159     -6.49384 
         850      2.61333   -0.0007437  0.000161099     -6.49383 
         850            3  -0.00041492  0.000179864     -6.49381 
         900            0  4.93849e-20 -1.54898e-26     -4.73844 
         900     0.013333  0.000128719  9.15264e-08     -4.73844 
         900     0.053333  0.000422792  1.59066e-06     -4.73844 
         900         0.12  0.000650743  8.67832e-06     -4.73844 
         900     0.213332  0.000599309  2.80989e-05     -4.73844 
         900     0.333332  0.000246241  6.55525e-05     -4.73844 
         900         0.48  -0.00021993  0.000121347     -4.73844 
         900     0.653331 -0.000575611  0.000190234     -4.73844 
         900     0.853332 -0.000732879   0.00026512     -4.73844 
         900         1.08  -0.00075489  0.000339873     -4.73844 
         900      1.33333 -0.000756235   0.00040986     -4.73844 
         900      1.61333 -0.000776007  0.000473301     -4.73844 
         900         1.92  -0.00075283  0.000531482     -4.73844 
         900      2.25333 -0.000680645  0.000583166     -4.73844 
         900      2.61333  -0.00057992  0.000625714     -4.73844 
         900            3 -0.000464869  0.000655752     -4.73845 
         950            0 -2.54005e-19  1.98582e-25     -2.98562 
         950     0.013333 -0.000376532  5.20434e-07     -2.98562 
         950     0.053333  -0.00153486  7.48337e-06     -2.98562 
         950         0.12  -0.00338769  3.15511e-05     -2.98562 
         950     0.213332    -0.005479  7.66706e-05     -2.98562 
         950     0.333332  -0.00713618   0.00013321     -2.98562 
         950         0.48  -0.00794825  0.000184199     -2.98562 
         950     0.653331  -0.00800374  0.000218397     -2.98562 
         950     0.853332  -0.00763686  0.000236686     -2.98563 
         950         1.08  -0.00706377  0.000248231     -2.98563 
         950      1.33333  -0.00632566  0.000261377     -2.98563 
         950      1.61333  -0.00546946  0.000277246     -2.98562 
         950         1.92  -0.00459467    0.0002906     -2.98561 
         950      2.25333  -0.00368824  0.000298429     -2.98558 
         950      2.61333  -0.00272554  0.000300072     -2.98554 
         950            3  -0.00171548   0.00029543     -2.98549 
        1000            0           -0           -0     -1.22938 
        1000     0.013333 -0.000913942 -3.45641e-07     -1.22938 
        1000     0.053333   -0.0031639 -6.13019e-06     -1.22938 
        1000         0.12  -0.00552141 -3.41777e-05     -1.22938 
        1000     0.213332  -0.00674156 -0.000113107     -1.22938 
        1000     0.333332  -0.00640974 -0.000270193     -1.22938 
        1000         0.48  -0.00512473 -0.000513942     -1.22938 
        1000     0.653331  -0.00383604  -0.00083106     -1.22938 
        1000     0.853332  -0.00310954  -0.00119874     -1.22939 
        1000         1.08  -0.00293318  -0.00159462     -1.22939 
        1000      1.33333  -0.00291648  -0.00199661     -1.22939 
        1000      1.61333  -0.00267991  -0.00238412     -1.22938 
        1000         1.92  -0.00220684  -0.00274423     -1.22937 
        1000      2.25333   -0.0016742  -0.00306818     -1.22936 
        1000      2.61333  -0.00114941  -0.00334266     -1.22933 
        1000            3 -0.000619834  -0.00355149     -1.22929 
