Variables = x, y, u, v, p

Zone, I=416, F=POINT
         -50            0            0            0      135.991 
         -50     0.013333  0.000301741  8.26226e-08      135.991 
         -50     0.053333  0.000285587  3.99647e-07      135.991 
         -50         0.12  0.000282905  1.16984e-06      135.991 
         -50     0.213332  0.000278644  2.48866e-06      135.991 
         -50     0.333332  0.000273271  4.58892e-06      135.991 
         -50         0.48  0.000269547  7.85661e-06      135.991 
         -50     0.653331  0.000270743  1.09163e-05       135.99 
         -50     0.853332  0.000274699  1.44989e-05      135.989 
         -50         1.08  0.000277242  1.80798e-05      135.988 
         -50      1.33333  0.000278513  2.17249e-05      135.987 
         -50      1.61333  0.000280045  2.39823e-05      135.985 
         -50         1.92  0.000279784  2.63244e-05      135.983 
         -50      2.25333  0.000280356  2.68761e-05       135.98 
         -50      2.61333  0.000279476  2.53757e-05      135.976 
         -50            3  0.000276472  2.45694e-05      135.972 
         -25            0           -0           -0      130.643 
         -25     0.013333  0.000219956  3.14679e-08      130.643 
         -25     0.053333  0.000204082  1.83092e-07      130.643 
         -25         0.12  0.000196451   6.0963e-07      130.643 
         -25     0.213332  0.000187746  1.41327e-06      130.643 
         -25     0.333332  0.000179947   2.5224e-06      130.643 
         -25         0.48   0.00017485   3.7459e-06      130.643 
         -25     0.653331  0.000173242  5.22593e-06      130.643 
         -25     0.853332  0.000174226  6.60304e-06      130.643 
         -25         1.08  0.000176877   7.8095e-06      130.642 
         -25      1.33333   0.00018153  8.92065e-06      130.642 
         -25      1.61333  0.000189522  9.67846e-06      130.641 
         -25         1.92  0.000200379    1.043e-05       130.64 
         -25      2.25333  0.000207544  9.65426e-06      130.639 
         -25      2.61333  0.000208492   8.3635e-06      130.638 
         -25            3   0.00020729  9.36741e-06      130.636 
           0            0            0            0       126.21 
           0     0.013333  0.000618008 -0.000371031      126.216 
           0     0.053333  0.000373158 -0.000194456      126.224 
           0         0.12  0.000284659 -0.000131934      126.233 
           0     0.213332  0.000239674 -0.000102986      126.244 
           0     0.333332  0.000215858 -8.55363e-05      126.254 
           0         0.48  0.000200361 -7.26107e-05      126.264 
           0     0.653331  0.000190318 -6.30571e-05      126.274 
           0     0.853332  0.000183628 -5.57119e-05      126.285 
           0         1.08  0.000180374 -4.98148e-05      126.294 
           0      1.33333  0.000179383 -4.48362e-05      126.304 
           0      1.61333  0.000178827 -4.05559e-05      126.313 
           0         1.92  0.000177215 -3.67249e-05      126.322 
           0      2.25333  0.000177196 -3.29281e-05       126.33 
           0      2.61333  0.000182465 -2.83662e-05      126.338 
           0            3  0.000188947  -2.4392e-05      126.345 
          20            0  4.55579e-05  0.000160184       123.59 
          20     0.013333  4.24322e-05  0.000160444       123.59 
          20     0.053333  3.18403e-05  0.000161043       123.59 
          20         0.12   9.9426e-06  0.000161432       123.59 
          20     0.213332 -2.92387e-05   0.00016093       123.59 
          20     0.333332 -8.94573e-05  0.000158661      123.589 
          20         0.48 -0.000157885  0.000154753      123.589 
          20     0.653331 -0.000193132  0.000150029      123.589 
          20     0.853332 -0.000168262  0.000144597      123.589 
          20         1.08 -9.23621e-05  0.000137189      123.589 
          20      1.33333     4.02e-06  0.000126043      123.588 
          20      1.61333  0.000106096  0.000110641      123.588 
          20         1.92  0.000200509  9.14078e-05      123.587 
          20      2.25333  0.000274907  6.96029e-05      123.587 
          20      2.61333  0.000320243  4.69222e-05      123.586 
          20            3   0.00033558  2.50698e-05      123.586 
          40            0 -1.58203e-18 -2.93005e-18      121.129 
          40     0.013333  -0.00429396  -0.00352101      121.124 
          40     0.053333  -0.00668447  -0.00448335      121.116 
          40         0.12   -0.0057817  -0.00257209      121.107 
          40     0.213332  -0.00508281 -0.000965243      121.098 
          40     0.333332  -0.00539868  9.53175e-05      121.089 
          40         0.48  -0.00661582   0.00072615      121.079 
          40     0.653331  -0.00795092   0.00106202       121.07 
          40     0.853332  -0.00822626   0.00123757      121.061 
          40         1.08  -0.00698557   0.00133755      121.052 
          40      1.33333  -0.00479311   0.00138031      121.043 
          40      1.61333  -0.00233639   0.00136153      121.035 
          40         1.92 -5.74853e-05   0.00128399      121.027 
          40      2.25333   0.00169039   0.00115923      121.019 
          40      2.61333   0.00269559   0.00100435      121.011 
          40            3    0.0030055  0.000837264      121.004 
          60            0            0            0      118.281 
          60     0.013333 -0.000812206  1.94948e-06      118.281 
          60     0.053333  -0.00359458  2.48227e-05      118.281 
          60         0.12  -0.00725495  8.50501e-05      118.281 
          60     0.213332   -0.0101838  0.000152451      118.281 
          60     0.333332   -0.0116474  0.000172983      118.281 
          60         0.48   -0.0122482  0.000132216      118.281 
          60     0.653331   -0.0124653  8.30324e-05      118.281 
          60     0.853332   -0.0119742  0.000104621      118.281 
          60         1.08   -0.0104679  0.000197139      118.281 
          60      1.33333  -0.00773704  0.000329211      118.281 
          60      1.61333  -0.00434164  0.000461886      118.281 
          60         1.92   -0.0011058   0.00056274      118.281 
          60      2.25333   0.00149362  0.000629122      118.281 
          60      2.61333   0.00316669  0.000645781      118.281 
          60            3   0.00388278  0.000632103      118.281 
          80            0           -0           -0      115.712 
          80     0.013333 -0.000169982  1.00586e-06      115.712 
          80     0.053333   -0.0012063  1.35767e-05      115.712 
          80         0.12  -0.00280335  5.19785e-05      115.712 
          80     0.213332  -0.00437689  0.000112477      115.712 
          80     0.333332  -0.00541418  0.000174619      115.712 
          80         0.48  -0.00594281  0.000223825      115.712 
          80     0.653331  -0.00611938  0.000271259      115.712 
          80     0.853332  -0.00560553  0.000361994      115.712 
          80         1.08  -0.00413396  0.000529018      115.712 
          80      1.33333  -0.00248951  0.000738236      115.712 
          80      1.61333  -0.00124763  0.000921843      115.712 
          80         1.92 -0.000153791   0.00105119      115.712 
          80      2.25333   0.00078649   0.00112076      115.712 
          80      2.61333   0.00143544   0.00112623      115.712 
          80            3   0.00172418   0.00108452      115.712 
         100            0  2.47181e-19  6.36741e-25      113.206 
         100     0.013333  0.000343963   7.2191e-07      113.206 
         100     0.053333  0.000641536  1.10349e-05      113.206 
         100         0.12  0.000534102  5.08494e-05      113.206 
         100     0.213332 -0.000137958  0.000137768      113.206 
         100     0.333332  -0.00100004  0.000273211      113.206 
         100         0.48  -0.00156775    0.0004453      113.206 
         100     0.653331  -0.00159369  0.000641787      113.206 
         100     0.853332  -0.00115479  0.000850593      113.206 
         100         1.08 -0.000614477   0.00105286      113.206 
         100      1.33333 -0.000279367   0.00122684      113.206 
         100      1.61333 -0.000130574   0.00135434      113.206 
         100         1.92  4.89233e-05   0.00142664      113.206 
         100      2.25333  0.000230263   0.00143705      113.206 
         100      2.61333  0.000355235   0.00138814      113.206 
         100            3  0.000418923   0.00129349      113.206 
         150            0  1.11491e-19  5.76176e-25       107.07 
         150     0.013333 -0.000178484  8.07431e-07       107.07 
         150     0.053333  -0.00117512  1.09946e-05       107.07 
         150         0.12  -0.00263917  4.23223e-05       107.07 
         150     0.213332  -0.00400356  9.10704e-05       107.07 
         150     0.333332  -0.00476794  0.000138161       107.07 
         150         0.48  -0.00493062  0.000169604       107.07 
         150     0.653331  -0.00471427  0.000189888       107.07 
         150     0.853332  -0.00415775  0.000216253       107.07 
         150         1.08  -0.00328231  0.000255917       107.07 
         150      1.33333  -0.00231853  0.000300358       107.07 
         150      1.61333  -0.00139965  0.000336674       107.07 
         150         1.92 -0.000531056  0.000359036       107.07 
         150      2.25333  0.000253535  0.000368168       107.07 
         150      2.61333  0.000877304  0.000361047       107.07 
         150            3   0.00126349  0.000341769       107.07 
         200            0  1.93277e-19  5.02823e-26      101.018 
         200     0.013333  0.000233771 -4.56225e-07      101.018 
         200     0.053333  0.000554777 -6.43268e-06      101.018 
         200         0.12     0.001129 -2.60252e-05      101.018 
         200     0.213332   0.00170867 -5.94578e-05      101.018 
         200     0.333332   0.00199934 -9.66777e-05      101.018 
         200         0.48   0.00195688 -0.000128689      101.018 
         200     0.653331   0.00170604 -0.000156906      101.018 
         200     0.853332   0.00132354 -0.000188069      101.018 
         200         1.08  0.000923129 -0.000219414      101.018 
         200      1.33333   0.00065439 -0.000240019      101.018 
         200      1.61333  0.000456226  -0.00024635      101.018 
         200         1.92  0.000245177 -0.000241258      101.018 
         200      2.25333  3.99891e-05 -0.000225863      101.018 
         200      2.61333 -0.000125617 -0.000200897      101.018 
         200            3 -0.000227782 -0.000169342      101.018 
         250            0           -0           -0      94.9923 
         250     0.013333  0.000210282  1.19684e-07      94.9923 
         250     0.053333  0.000344739   1.8651e-06      94.9923 
         250         0.12  0.000450171  8.65294e-06      94.9923 
         250     0.213332  0.000477483  2.31067e-05      94.9923 
         250     0.333332  0.000481208  4.45088e-05      94.9923 
         250         0.48  0.000522084  7.07079e-05      94.9923 
         250     0.653331  0.000622086  0.000101504      94.9923 
         250     0.853332  0.000766302  0.000136635      94.9923 
         250         1.08  0.000845024  0.000169666      94.9923 
         250      1.33333  0.000756655  0.000191412      94.9923 
         250      1.61333  0.000600744  0.000201633      94.9923 
         250         1.92  0.000456027  0.000203677      94.9923 
         250      2.25333   0.00031149  0.000197023      94.9923 
         250      2.61333  0.000174736  0.000182422      94.9923 
         250            3  6.82828e-05  0.000161578      94.9923 
         300            0            0            0      88.9761 
         300     0.013333  0.000231898 -4.35441e-08      88.9761 
         300     0.053333  0.000443909 -3.83994e-07      88.9761 
         300         0.12  0.000654881  1.47993e-07      88.9761 
         300     0.213332  0.000688338  6.46795e-06      88.9761 
         300     0.333332  0.000498726  2.46523e-05      88.9761 
         300         0.48  0.000209784  5.56046e-05      88.9761 
         300     0.653331 -4.93174e-05   9.3305e-05      88.9761 
         300     0.853332 -0.000259537  0.000130457      88.9761 
         300         1.08 -0.000400022   0.00016626      88.9761 
         300      1.33333 -0.000409592   0.00020464      88.9761 
         300      1.61333 -0.000343393  0.000244083      88.9761 
         300         1.92 -0.000269438  0.000278869      88.9761 
         300      2.25333 -0.000185789  0.000305334       88.976 
         300      2.61333 -9.43441e-05  0.000321303       88.976 
         300            3 -5.79931e-06  0.000325783       88.976 
         350            0           -0           -0      82.9649 
         350     0.013333  0.000682106 -3.72947e-07      82.9649 
         350     0.053333   0.00213157 -4.46376e-06      82.9649 
         350         0.12   0.00396554 -1.28983e-05      82.9649 
         350     0.213332   0.00541262 -1.29172e-05      82.9649 
         350     0.333332   0.00604867  1.52535e-05      82.9649 
         350         0.48   0.00607561  8.12153e-05      82.9649 
         350     0.653331    0.0059243  0.000177675      82.9649 
         350     0.853332   0.00571462  0.000284308      82.9649 
         350         1.08   0.00519313  0.000376187      82.9649 
         350      1.33333    0.0042793  0.000441418      82.9649 
         350      1.61333   0.00327607  0.000489121      82.9649 
         350         1.92   0.00228423  0.000525453      82.9649 
         350      2.25333   0.00127357  0.000545189      82.9648 
         350      2.61333  0.000305018  0.000546589      82.9647 
         350            3 -0.000503239  0.000529577      82.9646 
         400            0            0            0      76.9512 
         400     0.013333  0.000142405  1.72241e-07      76.9512 
         400     0.053333  7.72141e-05  2.65158e-06      76.9512 
         400         0.12 -0.000129436   1.2231e-05      76.9512 
         400     0.213332 -0.000471131  3.27259e-05      76.9512 
         400     0.333332 -0.000799131  6.28748e-05      76.9512 
         400         0.48 -0.000970827  9.75341e-05      76.9512 
         400     0.653331 -0.000956001  0.000132978      76.9512 
         400     0.853332 -0.000805183  0.000168014      76.9512 
         400         1.08 -0.000629186  0.000199046      76.9512 
         400      1.33333 -0.000535033  0.000220275      76.9512 
         400      1.61333 -0.000466766  0.000232059      76.9512 
         400         1.92 -0.000345184    0.0002381      76.9512 
         400      2.25333 -0.000195073  0.000238044      76.9512 
         400      2.61333 -4.05264e-05  0.000231175      76.9512 
         400            3  0.000103425  0.000217582      76.9512 
         450            0           -0           -0      70.9395 
         450     0.013333  0.000219077  4.11889e-07      70.9395 
         450     0.053333  0.000283796  6.28716e-06      70.9395 
         450         0.12  6.96009e-05  2.88769e-05      70.9395 
         450     0.213332 -0.000486592   7.7822e-05      70.9395 
         450     0.333332  -0.00111305  0.000152665      70.9395 
         450         0.48  -0.00149545  0.000244139      70.9395 
         450     0.653331  -0.00153394  0.000343815      70.9395 
         450     0.853332  -0.00129997  0.000448555      70.9395 
         450         1.08 -0.000947459  0.000554301      70.9395 
         450      1.33333 -0.000674692  0.000651002      70.9395 
         450      1.61333 -0.000525301  0.000730417      70.9395 
         450         1.92 -0.000369754  0.000791194      70.9395 
         450      2.25333 -0.000186449  0.000830313      70.9395 
         450      2.61333  2.67829e-06  0.000844038      70.9395 
         450            3  0.000173689  0.000830392      70.9396 
         500            0            0            0      64.9299 
         500     0.013333  0.000498943 -4.67743e-07      64.9299 
         500     0.053333   0.00154421 -6.48801e-06      64.9299 
         500         0.12   0.00310713 -2.57533e-05      64.9299 
         500     0.213332   0.00469005 -5.75468e-05      64.9299 
         500     0.333332   0.00576611  -8.9772e-05      64.9299 
         500         0.48   0.00617519 -0.000108408      64.9299 
         500     0.653331   0.00613285 -0.000108141      64.9299 
         500     0.853332   0.00588192 -9.44013e-05      64.9299 
         500         1.08   0.00544597 -7.89876e-05      64.9299 
         500      1.33333   0.00475644 -7.12248e-05      64.9299 
         500      1.61333   0.00390316 -7.01309e-05      64.9299 
         500         1.92    0.0030152 -6.91782e-05      64.9299 
         500      2.25333   0.00207958 -6.69185e-05      64.9298 
         500      2.61333   0.00111923 -6.34419e-05      64.9298 
         500            3  0.000219717 -5.88718e-05      64.9297 
         550            0            0            0      58.9146 
         550     0.013333 -9.55108e-05   7.3168e-07      58.9146 
         550     0.053333 -0.000939788  1.06227e-05      58.9146 
         550         0.12  -0.00246828  4.55341e-05      58.9146 
         550     0.213332  -0.00435629  0.000113699      58.9146 
         550     0.333332  -0.00595728  0.000206504      58.9146 
         550         0.48  -0.00684489  0.000306096      58.9146 
         550     0.653331  -0.00705725   0.00040084      58.9146 
         550     0.853332  -0.00681604  0.000491856      58.9146 
         550         1.08  -0.00623075  0.000586931      58.9146 
         550      1.33333  -0.00537565  0.000688287      58.9146 
         550      1.61333  -0.00441148  0.000788094      58.9146 
         550         1.92  -0.00342421  0.000875916      58.9147 
         550      2.25333  -0.00237356  0.000945194      58.9147 
         550      2.61333  -0.00127502  0.000990531      58.9147 
         550            3 -0.000218102   0.00100764      58.9148 
         600            0            0            0      52.9065 
         600     0.013333   0.00017651  -9.6517e-07      52.9065 
         600     0.053333  0.000551522 -1.43785e-05      52.9065 
         600         0.12   0.00174327 -6.41692e-05      52.9065 
         600     0.213332   0.00368279 -0.000168772      52.9065 
         600     0.333332   0.00567312 -0.000325556      52.9065 
         600         0.48    0.0070096  -0.00051459      52.9065 
         600     0.653331   0.00749886 -0.000717171      52.9065 
         600     0.853332   0.00731421 -0.000927623      52.9065 
         600         1.08    0.0066488  -0.00114832      52.9065 
         600      1.33333   0.00569756  -0.00137571      52.9065 
         600      1.61333   0.00470347  -0.00159491      52.9065 
         600         1.92   0.00375216  -0.00178922      52.9065 
         600      2.25333   0.00275176  -0.00194614      52.9065 
         600      2.61333   0.00169151  -0.00205468      52.9064 
         600            3  0.000655272  -0.00210545      52.9063 
         650            0            0            0      46.8915 
         650     0.013333  0.000399971  1.16414e-06      46.8915 
         650     0.053333  0.000703712  1.76483e-05      46.8915 
         650         0.12  0.000196139  8.08052e-05      46.8915 
         650     0.213332  -0.00143009  0.000219125      46.8916 
         650     0.333332    -0.003535  0.000436939      46.8916 
         650         0.48  -0.00519359  0.000714557      46.8915 
         650     0.653331  -0.00595121   0.00102944      46.8915 
         650     0.853332  -0.00583932   0.00137215      46.8915 
         650         1.08  -0.00507024   0.00174003      46.8915 
         650      1.33333  -0.00403201   0.00211842      46.8915 
         650      1.61333  -0.00315529     0.002479      46.8916 
         650         1.92  -0.00246716   0.00279867      46.8916 
         650      2.25333  -0.00176923   0.00306168      46.8916 
         650      2.61333  -0.00101253   0.00325151      46.8916 
         650            3 -0.000268726   0.00335232      46.8917 
         700            0           -0           -0       40.882 
         700     0.013333 -9.69991e-05 -7.88086e-07       40.882 
         700     0.053333 -0.000498525 -1.19138e-05       40.882 
         700         0.12 -0.000414991 -5.43191e-05       40.882 
         700     0.213332  0.000396848 -0.000146631       40.882 
         700     0.333332   0.00155555  -0.00029144       40.882 
         700         0.48   0.00248823 -0.000476511       40.882 
         700     0.653331   0.00291154 -0.000689264       40.882 
         700     0.853332   0.00281161 -0.000926744       40.882 
         700         1.08   0.00225518  -0.00119039       40.882 
         700      1.33333   0.00149359  -0.00146977       40.882 
         700      1.61333  0.000939343  -0.00173903       40.882 
         700         1.92  0.000669225  -0.00197642       40.882 
         700      2.25333  0.000455937  -0.00217297       40.882 
         700      2.61333  0.000216713  -0.00231811      40.8819 
         700            3 -7.01571e-06  -0.00240039      40.8819 
         750            0            0            0      34.8692 
         750     0.013333  9.58838e-05  3.30861e-07      34.8692 
         750     0.053333 -0.000124228  4.79035e-06      34.8692 
         750         0.12 -0.000581096   2.0404e-05      34.8692 
         750     0.213332  -0.00116915  5.04166e-05      34.8692 
         750     0.333332  -0.00162985  9.04301e-05      34.8692 
         750         0.48  -0.00180912  0.000132914      34.8692 
         750     0.653331  -0.00175645  0.000174873      34.8692 
         750     0.853332  -0.00156655  0.000220195      34.8692 
         750         1.08  -0.00124196  0.000275466      34.8692 
         750      1.33333 -0.000804836  0.000341486      34.8692 
         750      1.61333 -0.000425737  0.000408809      34.8692 
         750         1.92 -0.000213065  0.000466414      34.8692 
         750      2.25333 -5.20699e-05  0.000512011      34.8692 
         750      2.61333  0.000117268  0.000544261      34.8693 
         750            3  0.000277818  0.000561244      34.8693 
         800            0  2.41695e-19  7.21778e-27      28.8595 
         800     0.013333  0.000374929 -4.89563e-07      28.8595 
         800     0.053333   0.00112553 -7.07591e-06      28.8595 
         800         0.12   0.00242064 -3.00701e-05      28.8595 
         800     0.213332   0.00394457 -7.39725e-05      28.8595 
         800     0.333332   0.00516983 -0.000131149      28.8595 
         800         0.48   0.00576652 -0.000187627      28.8595 
         800     0.653331   0.00580135 -0.000234793      28.8595 
         800     0.853332   0.00551041 -0.000274449      28.8595 
         800         1.08   0.00502088 -0.000314569      28.8595 
         800      1.33333   0.00437116 -0.000359855      28.8595 
         800      1.61333   0.00366756  -0.00040654      28.8595 
         800         1.92   0.00301429 -0.000446772      28.8595 
         800      2.25333    0.0023512 -0.000477392      28.8595 
         800      2.61333   0.00163913 -0.000497213      28.8595 
         800            3  0.000904708  -0.00050483      28.8594 
         850            0            0            0      22.8458 
         850     0.013333  0.000440897  5.71624e-07      22.8458 
         850     0.053333   0.00102975  8.83668e-06      22.8458 
         850         0.12   0.00129759  4.16657e-05      22.8458 
         850     0.213332  0.000846802  0.000117088      22.8458 
         850     0.333332 -0.000139422  0.000242526      22.8458 
         850         0.48  -0.00113829  0.000411329      22.8458 
         850     0.653331  -0.00175308  0.000611466      22.8458 
         850     0.853332  -0.00187337  0.000835373      22.8458 
         850         1.08  -0.00156871   0.00107948      22.8458 
         850      1.33333  -0.00106423   0.00133484      22.8458 
         850      1.61333 -0.000668956   0.00158415      22.8458 
         850         1.92 -0.000480765   0.00181216      22.8458 
         850      2.25333 -0.000344424   0.00201048      22.8458 
         850      2.61333 -0.000184427   0.00216983      22.8458 
         850            3 -1.73307e-05   0.00227946      22.8458 
         900            0            0            0       16.834 
         900     0.013333  1.13268e-05 -2.00682e-07       16.834 
         900     0.053333 -0.000274098 -3.18146e-06       16.834 
         900         0.12 -0.000443594 -1.53958e-05       16.834 
         900     0.213332 -0.000350411 -4.39175e-05       16.834 
         900     0.333332 -9.27284e-05 -9.08554e-05       16.834 
         900         0.48  9.71091e-05 -0.000151709       16.834 
         900     0.653331  7.46489e-05  -0.00022043       16.834 
         900     0.853332 -0.000162786 -0.000294364       16.834 
         900         1.08 -0.000527884 -0.000371999       16.834 
         900      1.33333 -0.000825737 -0.000446251       16.834 
         900      1.61333 -0.000858918 -0.000506123       16.834 
         900         1.92  -0.00070008 -0.000548498       16.834 
         900      2.25333 -0.000528989 -0.000577546       16.834 
         900      2.61333  -0.00038662 -0.000593951       16.834 
         900            3 -0.000236264 -0.000595679       16.834 
         950            0           -0           -0       10.822 
         950     0.013333   0.00046498  4.03645e-07       10.822 
         950     0.053333   0.00115858  6.42982e-06       10.822 
         950         0.12   0.00164228  3.15593e-05       10.822 
         950     0.213332    0.0014517  9.25024e-05       10.822 
         950     0.333332  0.000645265  0.000198994       10.822 
         950         0.48 -0.000306328  0.000347667       10.822 
         950     0.653331 -0.000955215  0.000527183       10.822 
         950     0.853332  -0.00113292  0.000727641       10.822 
         950         1.08 -0.000914386  0.000942292       10.822 
         950      1.33333 -0.000557557    0.0011607       10.822 
         950      1.61333 -0.000356015    0.0013678       10.822 
         950         1.92   -0.0003326   0.00155418       10.822 
         950      2.25333   -0.0003165   0.00171781       10.822 
         950      2.61333 -0.000251769   0.00185221       10.822 
         950            3  -0.00017089   0.00194802       10.822 
        1000            0            0            0       4.8086 
        1000     0.013333 -0.000157724   1.8038e-07       4.8086 
        1000     0.053333  -0.00100939  2.37017e-06       4.8086 
        1000         0.12  -0.00217559  8.50147e-06       4.8086 
        1000     0.213332  -0.00329011   1.5805e-05       4.8086 
        1000     0.333332   -0.0040298  1.68586e-05       4.8086 
        1000         0.48  -0.00433366  5.08203e-06       4.8086 
        1000     0.653331  -0.00437597 -2.08676e-05      4.80859 
        1000     0.853332  -0.00435653 -5.73291e-05      4.80859 
        1000         1.08  -0.00431899 -9.68831e-05      4.80859 
        1000      1.33333  -0.00412065 -0.000129214      4.80859 
        1000      1.61333  -0.00363759 -0.000146243      4.80859 
        1000         1.92  -0.00300736 -0.000150316       4.8086 
        1000      2.25333  -0.00238066 -0.000149734      4.80862 
        1000      2.61333  -0.00176207 -0.000146116      4.80864 
        1000            3  -0.00110743 -0.000138204      4.80867 
