Variables = x, y, u, v, p

Zone, I=10400, F=POINT
         -50            0            0            0      -27.361 
         -50     0.000942 -1.55815e-06 -1.75273e-09      -27.361 
         -50     0.003768 -1.75925e-06 -4.01542e-09      -27.361 
         -50     0.008478  6.40364e-06 -2.35134e-10      -27.361 
         -50     0.015075  2.09036e-05  1.47234e-08      -27.361 
         -50     0.023553  2.95306e-05  4.20227e-08      -27.361 
         -50     0.033916  2.51574e-05  8.17713e-08      -27.361 
         -50     0.046163  1.89861e-05  1.37697e-07      -27.361 
         -50       0.0603  2.07354e-05  2.14914e-07      -27.361 
         -50     0.076315  1.02418e-05  3.10712e-07      -27.361 
         -50     0.094215  9.37871e-06  4.26473e-07      -27.361 
         -50     0.113999  3.94585e-06  5.58781e-07      -27.361 
         -50     0.135675 -3.33539e-07  7.00702e-07      -27.361 
         -50     0.159228 -5.49013e-06  8.44134e-07      -27.361 
         -50     0.184664 -1.02234e-05  9.78992e-07      -27.361 
         -50     0.211985 -1.41196e-05  1.09281e-06      -27.361 
         -50     0.241201 -1.86148e-05   1.1822e-06      -27.361 
         -50      0.27229 -2.20655e-05  1.26074e-06      -27.361 
         -50     0.305263 -2.55659e-05    1.343e-06      -27.361 
         -50     0.340135  -2.8738e-05  1.50098e-06      -27.361 
         -50     0.376877 -3.16527e-05  1.78191e-06      -27.361 
         -50     0.415503 -3.42688e-05  2.19597e-06     -27.3609 
         -50     0.456013 -3.64776e-05  2.71145e-06     -27.3609 
         -50     0.498424 -3.81699e-05  3.25653e-06     -27.3609 
         -50     0.542703 -3.92766e-05   3.7279e-06     -27.3609 
         -50     0.588866  -3.9732e-05  4.01038e-06     -27.3609 
         -50     0.636912 -3.93953e-05  4.06191e-06     -27.3608 
         -50     0.686864 -3.83009e-05  4.21421e-06     -27.3608 
         -50     0.738679 -3.64747e-05  4.50739e-06     -27.3608 
         -50     0.792379 -3.39722e-05  4.91702e-06     -27.3607 
         -50     0.847962 -3.08611e-05  5.41796e-06     -27.3607 
         -50     0.905453 -2.72134e-05  5.98557e-06     -27.3607 
         -50     0.964806 -2.31081e-05  6.59553e-06     -27.3606 
         -50      1.02604 -1.86173e-05   7.2258e-06     -27.3606 
         -50      1.08919  -1.3807e-05  7.85641e-06     -27.3605 
         -50      1.15419 -8.74446e-06  8.46865e-06     -27.3604 
         -50      1.22108 -3.49092e-06   9.0462e-06     -27.3604 
         -50      1.28985  1.87802e-06  9.57324e-06     -27.3603 
         -50      1.36054  7.25381e-06  1.00333e-05     -27.3602 
         -50      1.43308  1.24493e-05  1.04062e-05     -27.3601 
         -50      1.50751  1.71676e-05  1.06712e-05       -27.36 
         -50      1.58382  2.13705e-05  1.11103e-05     -27.3599 
         -50      1.66204  2.40512e-05   1.1391e-05     -27.3598 
         -50      1.74212  2.56404e-05  1.15727e-05     -27.3597 
         -50      1.82409  2.65334e-05  1.17123e-05     -27.3596 
         -50      1.90793  2.70766e-05   1.1862e-05     -27.3594 
         -50       1.9937  2.75603e-05  1.20677e-05     -27.3593 
         -50      2.08131  2.82111e-05  1.23664e-05     -27.3591 
         -50      2.17081  2.91885e-05  1.27859e-05     -27.3589 
         -50      2.26223  3.05819e-05  1.33424e-05     -27.3588 
         -50       2.3555  3.24095e-05  1.40391e-05     -27.3586 
         -50      2.45065  3.46241e-05  1.48667e-05     -27.3584 
         -50      2.54769  3.71183e-05  1.58025e-05     -27.3582 
         -50      2.64665  3.97364e-05  1.68121e-05     -27.3579 
         -50      2.74746  4.22845e-05  1.78494e-05     -27.3577 
         -50      2.85014  4.45557e-05   1.8862e-05     -27.3574 
         -50      2.95472   4.6349e-05  1.97944e-05     -27.3572 
         -50      3.06122  4.74986e-05  2.05948e-05     -27.3569 
         -50      3.16956  4.79049e-05  2.12226e-05     -27.3566 
         -50      3.27979  4.75749e-05   2.1661e-05     -27.3563 
         -50       3.3919  4.66619e-05  2.19299e-05      -27.356 
         -50      3.50594  4.55128e-05  2.21036e-05     -27.3556 
         -50      3.62181  4.47211e-05  2.23318e-05     -27.3553 
         -50      3.73958  4.51786e-05  2.28653e-05     -27.3549 
         -50      3.85927  4.33008e-05  2.40366e-05     -27.3545 
         -50       3.9808  4.23515e-05  2.44898e-05     -27.3541 
         -50      4.10422  4.12192e-05   2.4928e-05     -27.3536 
         -50      4.22952  4.04091e-05  2.54476e-05     -27.3532 
         -50      4.35675  3.99098e-05  2.60503e-05     -27.3527 
         -50      4.48582  3.95862e-05  2.67147e-05     -27.3522 
         -50      4.61677   3.9282e-05   2.7389e-05     -27.3517 
         -50      4.74961  3.89027e-05  2.79902e-05     -27.3511 
         -50      4.88438  3.84634e-05  2.84119e-05     -27.3506 
         -50      5.02099  3.80887e-05  2.85443e-05       -27.35 
         -50      5.15948  3.79484e-05  2.83103e-05     -27.3494 
         -50      5.29985  3.81105e-05  2.77186e-05     -27.3487 
         -50      5.44217  3.82908e-05  2.69398e-05     -27.3481 
         -50      5.58631  3.74735e-05  2.64111e-05     -27.3474 
         -50      5.73233  3.76092e-05  2.56309e-05     -27.3467 
         -50      5.88024   3.7281e-05  2.52881e-05     -27.3459 
         -50       6.0301  3.60647e-05  2.50125e-05     -27.3451 
         -50      6.18178    3.514e-05  2.46634e-05     -27.3443 
         -50      6.33534  3.47674e-05  2.46742e-05     -27.3435 
         -50      6.49085  3.47354e-05  2.51525e-05     -27.3426 
         -50      6.64818  3.47924e-05  2.49869e-05     -27.3418 
         -50      6.80739  3.38982e-05  2.38916e-05     -27.3408 
         -50      6.96849  3.29893e-05  2.44096e-05     -27.3399 
         -50      7.13154  3.29239e-05  2.46142e-05     -27.3389 
         -50      7.29641  3.29699e-05  2.45607e-05     -27.3379 
         -50      7.46316  3.27457e-05  2.44335e-05     -27.3368 
         -50       7.6318   3.2177e-05  2.44262e-05     -27.3357 
         -50      7.80239   3.1443e-05  2.46124e-05     -27.3346 
         -50      7.97479  3.09142e-05   2.4809e-05     -27.3334 
         -50      8.14908  3.10763e-05   2.5171e-05     -27.3322 
         -50      8.32526  3.12083e-05  2.51824e-05      -27.331 
         -50      8.50338  3.10763e-05  2.46509e-05     -27.3297 
         -50      8.68333  3.08438e-05  2.40724e-05     -27.3284 
         -50      8.86515  3.06672e-05  2.37337e-05      -27.327 
         -50      9.04894  3.05998e-05  2.37908e-05     -27.3256 
         -50      9.23453  3.04727e-05  2.44809e-05     -27.3242 
         -50      9.42201  3.04845e-05  2.52102e-05     -27.3227 
         -50      9.61137  3.08498e-05  2.44867e-05     -27.3212 
         -50      9.80269  3.08221e-05  2.38185e-05     -27.3196 
         -50      9.99583  3.06646e-05  2.31627e-05      -27.318 
         -50      10.1908  3.04751e-05  2.24464e-05     -27.3164 
         -50      10.3877  3.02481e-05  2.15994e-05     -27.3147 
         -50      10.5866  2.99321e-05  2.05795e-05     -27.3129 
         -50      10.7873  2.94775e-05   1.9393e-05     -27.3111 
         -50      10.9898  2.88724e-05  1.81009e-05     -27.3093 
         -50      11.1943  2.81644e-05  1.68172e-05     -27.3074 
         -50      11.4007  2.74623e-05  1.56909e-05     -27.3055 
         -50      11.6089  2.69174e-05  1.48734e-05     -27.3035 
         -50       11.819  2.66743e-05  1.44611e-05     -27.3015 
         -50       12.031  2.67926e-05  1.44194e-05     -27.2994 
         -50      12.2449  2.71302e-05  1.44781e-05     -27.2972 
         -50      12.4606   2.7184e-05  1.39962e-05      -27.295 
         -50      12.6782  2.66917e-05  1.39336e-05     -27.2928 
         -50      12.8978  2.75998e-05  1.25149e-05     -27.2905 
         -50      13.1192  2.72628e-05  1.17114e-05     -27.2882 
         -50      13.3425  2.69768e-05  1.20216e-05     -27.2858 
         -50      13.5677    2.689e-05  1.22682e-05     -27.2833 
         -50      13.7948  2.68141e-05  1.23389e-05     -27.2808 
         -50      14.0237   2.6664e-05  1.22276e-05     -27.2782 
         -50      14.2546  2.64292e-05   1.1998e-05     -27.2756 
         -50      14.4873  2.61465e-05  1.17471e-05     -27.2729 
         -50      14.7219  2.58752e-05  1.15741e-05     -27.2701 
         -50      14.9584  2.56751e-05  1.15536e-05     -27.2673 
         -50      15.1968  2.55867e-05  1.17139e-05     -27.2645 
         -50      15.4371  2.56183e-05  1.20243e-05     -27.2616 
         -50      15.6792  2.57363e-05  1.23894e-05     -27.2586 
         -50      15.9232  2.58641e-05  1.26559e-05     -27.2556 
         -50      16.1691  2.58876e-05  1.26305e-05     -27.2524 
         -50       16.417  2.56703e-05  1.21116e-05     -27.2493 
         -50      16.6666  2.50795e-05  1.09392e-05     -27.2461 
         -50      16.9182  2.56101e-05  1.16926e-05     -27.2428 
         -50      17.1716  2.56649e-05  1.21006e-05     -27.2394 
         -50       17.427  2.54566e-05  1.21649e-05      -27.236 
         -50      17.6842  2.52234e-05  1.20712e-05     -27.2325 
         -50      17.9433  2.50647e-05  1.19083e-05      -27.229 
         -50      18.2042  2.49907e-05  1.17049e-05     -27.2254 
         -50      18.4672  2.49649e-05  1.14625e-05     -27.2217 
         -50      18.7319  2.49393e-05  1.11816e-05      -27.218 
         -50      18.9985  2.48798e-05  1.08798e-05     -27.2142 
         -50       19.267  2.47803e-05  1.06022e-05     -27.2103 
         -50      19.5375  2.46639e-05  1.04198e-05     -27.2064 
         -50      19.8098  2.45683e-05  1.04166e-05     -27.2024 
         -50       20.084  2.45131e-05  1.06624e-05     -27.1984 
         -50      20.3601  2.44312e-05  1.09303e-05     -27.1942 
         -50       20.638   2.4457e-05     1.08e-05     -27.1901 
         -50      20.9178   2.4669e-05     1.09e-05     -27.1858 
         -50      21.1995  2.47583e-05  1.16566e-05     -27.1815 
         -50      21.4832  2.40529e-05  1.11642e-05     -27.1771 
         -50      21.7687   2.3569e-05  1.13396e-05     -27.1726 
         -50       22.056  2.34329e-05  1.10307e-05     -27.1681 
         -50      22.3452  2.30124e-05  1.13837e-05     -27.1635 
         -50      22.6365  2.28758e-05  1.16685e-05     -27.1588 
         -50      22.9295  2.29226e-05  1.18634e-05     -27.1541 
         -50      23.2243  2.30309e-05  1.19546e-05     -27.1493 
         -50      23.5211   2.3098e-05  1.19492e-05     -27.1445 
         -50      23.8199  2.30676e-05  1.18794e-05     -27.1395 
         -50      24.1204  2.29463e-05   1.1797e-05     -27.1345 
         -50      24.4228  2.28042e-05  1.17564e-05     -27.1295 
         -50      24.7272    2.276e-05  1.17843e-05     -27.1244 
         -50      25.0334  2.29466e-05  1.18358e-05     -27.1192 
         -50      25.3415  2.34558e-05  1.17334e-05     -27.1139 
         -50      25.6514  2.29013e-05  1.16814e-05     -27.1086 
         -50      25.9634  2.23226e-05  1.15114e-05     -27.1032 
         -50      26.2771  2.23575e-05  1.12547e-05     -27.0977 
         -50      26.5927  2.25892e-05  1.12066e-05     -27.0922 
         -50      26.9102  2.24869e-05  1.14875e-05     -27.0866 
         -50      27.2297  2.20034e-05  1.19086e-05      -27.081 
         -50       27.551  2.25629e-05  1.19346e-05     -27.0752 
         -50      27.8741  2.20431e-05  1.20531e-05     -27.0695 
         -50      28.1991  2.17718e-05  1.20287e-05     -27.0636 
         -50      28.5262  2.16683e-05  1.19423e-05     -27.0577 
         -50       28.855   2.1664e-05  1.18495e-05     -27.0517 
         -50      29.1856  2.17029e-05  1.17849e-05     -27.0457 
         -50      29.5183   2.1742e-05  1.17665e-05     -27.0396 
         -50      29.8528  2.17505e-05  1.17994e-05     -27.0334 
         -50      30.1891  2.17098e-05  1.18795e-05     -27.0272 
         -50      30.5273  2.16123e-05  1.19966e-05     -27.0209 
         -50      30.8676  2.14603e-05  1.21375e-05     -27.0145 
         -50      31.2096  2.12646e-05  1.22878e-05     -27.0081 
         -50      31.5534   2.1042e-05  1.24341e-05     -27.0017 
         -50      31.8992  2.08131e-05  1.25645e-05     -26.9951 
         -50      32.2469  2.05989e-05  1.26692e-05     -26.9885 
         -50      32.5965  2.04178e-05  1.27394e-05     -26.9819 
         -50      32.9479  2.02806e-05  1.27661e-05     -26.9752 
         -50      33.3012  2.01859e-05  1.27373e-05     -26.9684 
         -50      33.6565  2.01146e-05  1.26335e-05     -26.9616 
         -50      34.0135  2.00235e-05  1.24234e-05     -26.9548 
         -50      34.3725  1.98381e-05  1.20564e-05     -26.9478 
         -50      34.7334  1.94443e-05  1.14547e-05     -26.9408 
         -50      35.0962  1.93965e-05  1.12668e-05     -26.9338 
         -50      35.4608  1.94046e-05  1.22018e-05     -26.9267 
         -50      35.8272  2.00402e-05  1.20211e-05     -26.9196 
         -50      36.1957  2.04018e-05  1.21127e-05     -26.9124 
         -50       36.566  2.02705e-05  1.27337e-05     -26.9051 
         -50      36.9381  1.97087e-05  1.33624e-05     -26.8978 
         -50      37.3121  1.90737e-05  1.30564e-05     -26.8905 
         -50      37.6882  1.86262e-05  1.27154e-05     -26.8831 
         -50       38.066  1.83718e-05  1.23777e-05     -26.8757 
         -50      38.4456   1.8274e-05   1.2071e-05     -26.8682 
         -50      38.8272  1.82735e-05  1.18149e-05     -26.8607 
         -50      39.2108  1.83047e-05  1.16221e-05     -26.8531 
         -50      39.5961  1.83091e-05  1.14996e-05     -26.8455 
         -50      39.9833  1.82457e-05  1.14493e-05     -26.8378 
         -50      40.3724  1.80986e-05  1.14692e-05     -26.8301 
         -50      40.7635  1.78791e-05  1.15535e-05     -26.8223 
         -50      41.1564  1.76257e-05  1.16929e-05     -26.8145 
         -50      41.5511  1.73965e-05  1.18744e-05     -26.8067 
         -50      41.9479  1.72587e-05  1.20804e-05     -26.7988 
         -50      42.3464  1.72714e-05  1.22878e-05     -26.7909 
         -50      42.7468  1.74612e-05  1.24666e-05      -26.783 
         -50      43.1491  1.77926e-05  1.25778e-05      -26.775 
         -50      43.5534  1.81294e-05  1.25706e-05      -26.767 
         -50      43.9595   1.8189e-05  1.23794e-05     -26.7589 
         -50      44.3674  1.75293e-05  1.21094e-05     -26.7508 
         -50      44.7772  1.68593e-05  1.21688e-05     -26.7427 
         -50      45.1891  1.65878e-05  1.21352e-05     -26.7346 
         -50      45.6027  1.65979e-05  1.20043e-05     -26.7264 
         -50      46.0181  1.67052e-05  1.18274e-05     -26.7182 
         -50      46.4355  1.66433e-05  1.17081e-05     -26.7099 
         -50      46.8549  1.60492e-05     1.18e-05     -26.7017 
         -50       47.276  1.44502e-05  1.23052e-05     -26.6934 
         -50       47.699  1.51646e-05  1.20571e-05     -26.6851 
         -50      48.1241  1.55802e-05  1.19007e-05     -26.6767 
         -50      48.5508  1.57255e-05   1.1785e-05     -26.6683 
         -50      48.9795  1.57077e-05  1.16591e-05     -26.6599 
         -50        49.41  1.56041e-05  1.15037e-05     -26.6515 
         -50      49.8426  1.54662e-05  1.13234e-05     -26.6431 
         -50      50.2769  1.53251e-05  1.11389e-05     -26.6346 
         -50      50.7131  1.51947e-05  1.09789e-05     -26.6262 
         -50      51.1512  1.50772e-05   1.0873e-05     -26.6177 
         -50      51.5914  1.49673e-05  1.08445e-05     -26.6091 
         -50      52.0332  1.48574e-05  1.09029e-05     -26.6006 
         -50      52.4769  1.47416e-05  1.10373e-05     -26.5921 
         -50      52.9225   1.4621e-05  1.12104e-05     -26.5835 
         -50      53.3702  1.45084e-05  1.13523e-05     -26.5749 
         -50      53.8196  1.44331e-05  1.13546e-05     -26.5664 
         -50      54.2709  1.44454e-05  1.10664e-05     -26.5578 
         -50      54.7242  1.46217e-05   1.0289e-05     -26.5492 
         -50      55.1792  1.44203e-05  1.04095e-05     -26.5405 
         -50      55.6362  1.41644e-05  1.07064e-05     -26.5319 
         -50       56.095  1.39823e-05  1.08278e-05     -26.5233 
         -50      56.5558  1.38435e-05  1.08277e-05     -26.5147 
         -50      57.0184  1.37285e-05  1.07484e-05      -26.506 
         -50      57.4829  1.36256e-05  1.06233e-05     -26.4974 
         -50      57.9492  1.35294e-05  1.04782e-05     -26.4887 
         -50      58.4176  1.34381e-05   1.0333e-05     -26.4801 
         -50      58.8877  1.33519e-05  1.02027e-05     -26.4714 
         -50      59.3597  1.32715e-05  1.00985e-05     -26.4628 
         -50      59.8336  1.31969e-05  1.00285e-05     -26.4541 
         -50      60.3096   1.3126e-05  9.99765e-06     -26.4455 
         -50      60.7872  1.30545e-05  1.00078e-05     -26.4368 
         -50      61.2667  1.29755e-05  1.00572e-05     -26.4282 
         -50      61.7484  1.28795e-05   1.0139e-05     -26.4195 
         -50      62.2317  1.27555e-05  1.02404e-05     -26.4109 
         -50      62.7168  1.25916e-05  1.03399e-05     -26.4022 
         -50      63.2039  1.23772e-05  1.04051e-05     -26.3936 
         -50      63.6931  1.21047e-05  1.03891e-05      -26.385 
         -50      64.1839  1.22748e-05  9.84548e-06     -26.3764 
         -50      64.6766  1.25108e-05  9.48383e-06     -26.3678 
         -50      65.1712  1.25272e-05  9.30362e-06     -26.3592 
         -50      65.6679  1.22453e-05  9.17386e-06     -26.3506 
         -50      66.1663  1.16509e-05  9.05187e-06     -26.3421 
         -50      66.6665  1.09348e-05  9.05597e-06     -26.3335 
         -50      67.1687  1.10789e-05  9.22959e-06      -26.325 
         -50      67.6729    1.125e-05  9.25419e-06     -26.3165 
         -50      68.1788  1.13998e-05  9.18096e-06      -26.308 
         -50      68.6866  1.14786e-05  8.98638e-06     -26.2995 
         -50      69.1963  1.14445e-05  8.57884e-06      -26.291 
         -50      69.7081  1.12737e-05  7.80531e-06     -26.2826 
         -50      70.2215  1.12123e-05  8.54858e-06     -26.2741 
         -50      70.7368  1.12183e-05  9.16564e-06     -26.2657 
         -50      71.2543  1.12387e-05  9.53947e-06     -26.2573 
         -50      71.7734  1.12457e-05  9.73194e-06      -26.249 
         -50      72.2943   1.1222e-05  9.79643e-06     -26.2406 
         -50      72.8172  1.11591e-05  9.77673e-06     -26.2323 
         -50      73.3422  1.10564e-05  9.70723e-06      -26.224 
         -50      73.8688  1.09194e-05  9.61334e-06     -26.2157 
         -50      74.3973  1.07584e-05  9.51204e-06     -26.2075 
         -50      74.9277  1.05866e-05  9.41308e-06     -26.1993 
         -50      75.4602  1.04187e-05  9.32051e-06     -26.1911 
         -50      75.9944  1.02688e-05  9.23486e-06     -26.1829 
         -50      76.5305  1.01486e-05  9.15544e-06     -26.1748 
         -50      77.0684  1.00651e-05  9.08355e-06     -26.1667 
         -50      77.6084  1.00189e-05  9.02609e-06     -26.1586 
         -50      78.1502  1.00013e-05  8.99984e-06     -26.1506 
         -50      78.6937  9.99255e-06  9.03621e-06     -26.1426 
         -50      79.2394  9.96513e-06  9.16803e-06     -26.1346 
         -50      79.7868  1.00312e-05  8.84712e-06     -26.1267 
         -50      80.3361  9.97463e-06  8.64679e-06     -26.1188 
         -50      80.8872  9.85668e-06  8.50636e-06     -26.1109 
         -50      81.4404  9.72014e-06   8.3859e-06     -26.1031 
         -50      81.9953  9.59253e-06  8.26329e-06     -26.0953 
         -50      82.5521  9.48872e-06  8.13088e-06     -26.0876 
         -50      83.1108  9.41414e-06  7.99233e-06     -26.0798 
         -50      83.6715  9.36768e-06  7.85917e-06     -26.0722 
         -50       84.234  9.34469e-06  7.74759e-06     -26.0645 
         -50      84.7983  9.33981e-06  7.67446e-06      -26.057 
         -50      85.3645  9.34991e-06  7.65395e-06     -26.0494 
         -50      85.9328  9.37699e-06  7.69372e-06     -26.0419 
         -50      86.5028  9.43086e-06  7.79096e-06     -26.0344 
         -50      87.0747    9.532e-06  7.92856e-06      -26.027 
         -50      87.6486  9.71424e-06  8.07106e-06     -26.0196 
         -50      88.2243  9.56742e-06   8.1099e-06     -26.0123 
         -50      88.8018  9.19351e-06  8.10664e-06      -26.005 
         -50      89.3812  8.91329e-06  8.10461e-06     -25.9978 
         -50      89.9627  8.71178e-06  8.08484e-06     -25.9906 
         -50      90.5458  8.57601e-06   8.0315e-06     -25.9835 
         -50      91.1309   8.4943e-06  7.93329e-06     -25.9764 
         -50      91.7178  8.45629e-06  7.78501e-06     -25.9694 
         -50      92.3069  8.45246e-06  7.58911e-06     -25.9624 
         -50      92.8976  8.47362e-06  7.35775e-06     -25.9554 
         -50      93.4901  8.51037e-06  7.11418e-06     -25.9486 
         -50      94.0846  8.55251e-06  6.89498e-06     -25.9417 
         -50      94.6812  8.58825e-06  6.75198e-06      -25.935 
         -50      95.2794   8.6034e-06  6.75466e-06     -25.9282 
         -50      95.8796  8.76625e-06  6.47805e-06     -25.9216 
         -50      96.4818  8.79415e-06  6.19325e-06     -25.9149 
         -50      97.0857  8.67186e-06  6.02534e-06     -25.9084 
         -50      97.6915  8.46904e-06  5.93011e-06     -25.9019 
         -50      98.2991  8.23932e-06  5.87435e-06     -25.8955 
         -50      98.9089  8.02184e-06  5.83435e-06     -25.8891 
         -50      99.5203  7.84313e-06  5.79452e-06     -25.8827 
         -50      100.134  7.71815e-06  5.74605e-06     -25.8765 
         -50      100.749  7.65227e-06  5.68562e-06     -25.8703 
         -50      101.366  7.64282e-06  5.61414e-06     -25.8641 
         -50      101.985  7.68077e-06  5.53565e-06     -25.8581 
         -50      102.606  7.75233e-06  5.45602e-06      -25.852 
         -50      103.229  7.84077e-06  5.38194e-06     -25.8461 
         -50      103.854  7.92809e-06  5.31994e-06     -25.8402 
         -50       104.48  7.99663e-06  5.27544e-06     -25.8344 
         -50      105.108  8.03108e-06  5.25183e-06     -25.8286 
         -50      105.739  8.02001e-06  5.24977e-06     -25.8229 
         -50      106.371  7.95771e-06  5.26649e-06     -25.8173 
         -50      107.005  7.84602e-06  5.29522e-06     -25.8117 
         -50      107.641    7.696e-06  5.32473e-06     -25.8062 
         -50      108.279  7.52967e-06    5.339e-06     -25.8008 
         -50      108.919  7.38207e-06  5.31699e-06     -25.7954 
         -50       109.56  7.33135e-06   5.2136e-06     -25.7901 
         -50      110.204  7.43395e-06  4.96963e-06     -25.7849 
         -50      110.849  7.43887e-06  4.75616e-06     -25.7797 
         -50      111.497  7.38875e-06  4.58189e-06     -25.7747 
         -50      112.146  7.32274e-06  4.45245e-06     -25.7697 
         -50      112.797  7.27337e-06  4.36866e-06     -25.7647 
         -50       113.45  7.26308e-06  4.32435e-06     -25.7599 
         -50      114.105  7.30059e-06  4.30399e-06     -25.7551 
         -50      114.761  7.44314e-06  4.24149e-06     -25.7504 
         -50       115.42  7.54542e-06  4.11571e-06     -25.7457 
         -50      116.081  7.51996e-06  3.99204e-06     -25.7412 
         -50      116.743  7.42685e-06  3.87681e-06     -25.7367 
         -50      117.407  7.30723e-06  3.77156e-06     -25.7323 
         -50      118.073  7.18701e-06  3.67465e-06     -25.7279 
         -50      118.741  7.08045e-06  3.58256e-06     -25.7237 
         -50      119.411  6.99305e-06  3.49086e-06     -25.7195 
         -50      120.083  6.92451e-06  3.39531e-06     -25.7154 
         -50      120.757  6.87115e-06  3.29254e-06     -25.7114 
         -50      121.432  6.82803e-06  3.18085e-06     -25.7075 
         -50       122.11  6.79052e-06  3.06037e-06     -25.7037 
         -50      122.789  6.75565e-06  2.93338e-06     -25.6999 
         -50       123.47  6.72287e-06  2.80426e-06     -25.6962 
         -50      124.153  6.69437e-06  2.67935e-06     -25.6926 
         -50      124.838  6.67486e-06  2.56621e-06     -25.6891 
         -50      125.525   6.6708e-06  2.47298e-06     -25.6857 
         -50      126.214  6.68913e-06  2.40729e-06     -25.6824 
         -50      126.905  6.73528e-06  2.37499e-06     -25.6791 
         -50      127.597  6.81062e-06  2.37834e-06     -25.6759 
         -50      128.292  6.90927e-06  2.41415e-06     -25.6728 
         -50      128.988  7.01392e-06  2.47137e-06     -25.6699 
         -50      129.686  7.09141e-06  2.52847e-06      -25.667 
         -50      130.386   7.0871e-06  2.55037e-06     -25.6642 
         -50      131.088  6.91844e-06  2.48495e-06     -25.6615 
         -50      131.792  6.46817e-06   2.2593e-06     -25.6589 
         -50      132.497  6.74186e-06  1.94799e-06     -25.6564 
         -50      133.205  7.06598e-06  1.69185e-06     -25.6539 
         -50      133.915  7.14953e-06  1.46487e-06     -25.6516 
         -50      134.626  7.09025e-06  1.25398e-06     -25.6493 
         -50      135.339  6.96615e-06  1.04327e-06     -25.6471 
         -50      136.054  6.44547e-06  9.93035e-07      -25.645 
         -50      136.771  5.83568e-06  1.02753e-06     -25.6431 
         -50       137.49  5.56574e-06  1.01139e-06     -25.6412 
         -50      138.211   5.6103e-06  9.60604e-07     -25.6394 
         -50      138.934  5.87253e-06  8.91494e-07     -25.6377 
         -50      139.658  6.22512e-06  8.18667e-07     -25.6361 
         -50      140.385  6.54501e-06  7.53146e-07     -25.6347 
         -50      141.113  6.73889e-06  7.01342e-07     -25.6333 
         -50      141.843   6.7602e-06  6.64455e-07      -25.632 
         -50      142.575  6.61708e-06  6.38574e-07     -25.6309 
         -50      143.309   6.3703e-06  6.15291e-07     -25.6298 
         -50      144.045  6.12091e-06  5.83142e-07     -25.6289 
         -50      144.783  5.98701e-06   5.2965e-07     -25.6281 
         -50      145.523  6.06924e-06  4.44271e-07     -25.6273 
         -50      146.264  6.40366e-06  3.21909e-07     -25.6267 
         -50      147.007  6.90275e-06  1.67449e-07     -25.6262 
         -50      147.753  7.28271e-06  1.01711e-09     -25.6258 
         -50        148.5  6.97637e-06 -1.35502e-07     -25.6255 
         -50      149.249  5.03331e-06 -1.71689e-07     -25.6253 
         -50          150  1.32281e-19 -5.91495e-21     -25.6252 
         -25            0 -4.40093e-21 -4.72911e-24     -26.2654 
         -25     0.000942 -5.57108e-07   -9.416e-10     -26.2654 
         -25     0.003768  1.06818e-06  -3.6377e-09     -26.2654 
         -25     0.008478  1.00511e-05 -8.50214e-09     -26.2654 
         -25     0.015075  2.49379e-05  -1.8033e-08     -26.2654 
         -25     0.023553  3.67706e-05 -3.72114e-08     -26.2654 
         -25     0.033916  4.02869e-05 -7.17801e-08     -26.2654 
         -25     0.046163  4.36277e-05 -1.25724e-07     -26.2654 
         -25       0.0603  5.38059e-05 -2.01459e-07     -26.2654 
         -25     0.076315  5.58366e-05 -3.02353e-07     -26.2654 
         -25     0.094215  6.55266e-05 -4.27813e-07     -26.2654 
         -25     0.113999  7.21807e-05 -5.76448e-07     -26.2654 
         -25     0.135675  7.97016e-05 -7.44204e-07     -26.2654 
         -25     0.159228  8.63034e-05 -9.25127e-07     -26.2654 
         -25     0.184664  9.26867e-05 -1.11182e-06     -26.2654 
         -25     0.211985  9.89524e-05 -1.29586e-06     -26.2654 
         -25     0.241201  0.000103912 -1.46897e-06     -26.2654 
         -25      0.27229  0.000108694 -1.62427e-06     -26.2654 
         -25     0.305263  0.000112479 -1.75503e-06     -26.2654 
         -25     0.340135  0.000115588 -1.86153e-06     -26.2654 
         -25     0.376877  0.000118013 -1.94232e-06     -26.2654 
         -25     0.415503  0.000119826 -1.99342e-06     -26.2654 
         -25     0.456013  0.000121124 -2.00872e-06     -26.2654 
         -25     0.498424  0.000121973 -1.98156e-06     -26.2654 
         -25     0.542703  0.000122374 -1.90759e-06     -26.2654 
         -25     0.588866    0.0001223 -1.78858e-06     -26.2654 
         -25     0.636912  0.000121763  -1.6264e-06     -26.2654 
         -25     0.686864  0.000120669 -1.47977e-06     -26.2654 
         -25     0.738679  0.000118944 -1.34115e-06     -26.2653 
         -25     0.792379  0.000116514 -1.19364e-06     -26.2653 
         -25     0.847962  0.000113343 -1.03565e-06     -26.2653 
         -25     0.905453  0.000109423 -8.76281e-07     -26.2653 
         -25     0.964806  0.000104782 -7.29156e-07     -26.2653 
         -25      1.02604  9.94746e-05 -6.04828e-07     -26.2653 
         -25      1.08919  9.35775e-05 -5.04173e-07     -26.2652 
         -25      1.15419  8.71931e-05 -4.14212e-07     -26.2652 
         -25      1.22108   8.0429e-05 -3.09045e-07     -26.2652 
         -25      1.28985  7.34028e-05 -1.60497e-07     -26.2652 
         -25      1.36054  6.62362e-05  3.71167e-08     -26.2651 
         -25      1.43308  5.90719e-05  2.20861e-07     -26.2651 
         -25      1.50751  5.20832e-05   1.9666e-07     -26.2651 
         -25      1.58382  4.57537e-05  5.88987e-07      -26.265 
         -25      1.66204  3.93366e-05  7.72248e-07      -26.265 
         -25      1.74212  3.32338e-05  8.54249e-07     -26.2649 
         -25      1.82409   2.7767e-05  9.26949e-07     -26.2649 
         -25      1.90793  2.31803e-05  1.06318e-06     -26.2648 
         -25       1.9937  1.96308e-05  1.31435e-06     -26.2648 
         -25      2.08131  1.71926e-05  1.70814e-06     -26.2647 
         -25      2.17081   1.5849e-05  2.24795e-06     -26.2647 
         -25      2.26223  1.55037e-05   2.9126e-06     -26.2646 
         -25       2.3555  1.59881e-05  3.65618e-06     -26.2645 
         -25      2.45065  1.70726e-05  4.41174e-06     -26.2644 
         -25      2.54769  1.84845e-05  5.09383e-06     -26.2644 