Variables = x, y, u, v, p

Zone, I=2080, F=POINT
         -50            0            0            0      29.8094 
         -50      0.00048  1.34909e-05  1.49105e-09      29.8094 
         -50     0.001922   4.7535e-05  5.84541e-09      29.8094 
         -50     0.004326  8.61362e-05   1.2699e-08      29.8094 
         -50      0.00769  0.000112436  2.14759e-08      29.8094 
         -50     0.012017  0.000117992  3.14548e-08      29.8094 
         -50     0.017304  0.000107119  4.17968e-08      29.8094 
         -50     0.023553  9.32341e-05  5.16278e-08      29.8094 
         -50     0.030763  8.83036e-05  6.00647e-08      29.8094 
         -50     0.038936  9.23809e-05  6.62395e-08      29.8094 
         -50     0.048069  9.35278e-05  6.92437e-08      29.8094 
         -50     0.058163  8.42254e-05  6.79541e-08      29.8094 
         -50     0.069219  8.06651e-05  6.05752e-08      29.8094 
         -50     0.081236  8.55099e-05  4.36663e-08      29.8094 
         -50     0.094215  8.03726e-05  1.63224e-08      29.8094 
         -50     0.108155  7.97164e-05 -2.30485e-08      29.8094 
         -50     0.123056  7.78753e-05 -7.84439e-08      29.8094 
         -50     0.138918  7.64312e-05 -1.51929e-07      29.8094 
         -50     0.155744  7.56687e-05 -2.44338e-07      29.8094 
         -50     0.173529  7.50893e-05 -3.56007e-07      29.8094 
         -50     0.192276  7.42484e-05 -4.87562e-07      29.8094 
         -50     0.211984  7.34533e-05 -6.39385e-07      29.8094 
         -50     0.232655  7.33969e-05 -8.08154e-07      29.8094 
         -50     0.254285  7.28378e-05 -9.83056e-07      29.8094 
         -50     0.276877   7.2742e-05 -1.18262e-06      29.8094 
         -50     0.300431    7.259e-05 -1.37431e-06      29.8094 
         -50     0.324946  7.24126e-05 -1.54184e-06      29.8093 
         -50     0.350424  7.22245e-05 -1.68676e-06      29.8093 
         -50     0.376861  7.20277e-05 -1.82459e-06      29.8093 
         -50      0.40426  7.18151e-05 -1.97875e-06      29.8093 
         -50     0.432621  7.15777e-05 -2.17291e-06      29.8093 
         -50     0.461945   7.1311e-05 -2.42354e-06      29.8093 
         -50     0.492228  7.10213e-05 -2.73481e-06      29.8093 
         -50     0.523472  7.07274e-05 -3.09986e-06      29.8093 
         -50     0.555678  7.04547e-05 -3.51291e-06      29.8092 
         -50     0.588845  7.02168e-05 -3.99914e-06      29.8092 
         -50     0.622976   6.9979e-05 -4.38309e-06      29.8092 
         -50     0.658066  6.97805e-05 -4.44405e-06      29.8092 
         -50     0.694117  6.96746e-05  -4.5341e-06      29.8092 
         -50      0.73113  6.96827e-05  -4.6658e-06      29.8091 
         -50     0.769107  6.98229e-05   -4.843e-06      29.8091 
         -50     0.808042  7.01104e-05 -5.06152e-06      29.8091 
         -50     0.847939   7.0557e-05 -5.31057e-06       29.809 
         -50     0.888797  7.11715e-05 -5.57445e-06       29.809 
         -50      0.93062  7.19595e-05 -5.83486e-06       29.809 
         -50       0.9734  7.29239e-05 -6.07338e-06      29.8089 
         -50      1.01714  7.40651e-05 -6.27436e-06      29.8089 
         -50      1.06185  7.53815e-05 -6.42745e-06      29.8088 
         -50      1.10751  7.68698e-05 -6.52991e-06      29.8088 
         -50      1.15414   7.8525e-05 -6.58804e-06      29.8087 
         -50      1.20173  8.03401e-05 -6.61735e-06      29.8087 
         -50      1.25028  8.23061e-05 -6.64081e-06      29.8086 
         -50      1.29979  8.44107e-05 -6.68436e-06      29.8086 
         -50      1.35026  8.66365e-05 -6.76902e-06      29.8085 
         -50       1.4017  8.89577e-05 -6.89813e-06      29.8084 
         -50      1.45409  9.13366e-05 -7.03903e-06      29.8084 
         -50      1.50745  9.37245e-05 -7.08802e-06      29.8083 
         -50      1.56176  9.62958e-05 -6.66831e-06      29.8082 
         -50      1.61705  9.85377e-05 -6.39684e-06      29.8081 
         -50      1.67329  0.000100413 -6.22988e-06       29.808 
         -50      1.73049  0.000101905 -6.12702e-06      29.8079 
         -50      1.78865  0.000103017 -6.05168e-06      29.8078 
         -50      1.84778  0.000103769 -5.97146e-06      29.8077 
         -50      1.90786  0.000104199  -5.8584e-06      29.8076 
         -50      1.96891  0.000104357 -5.68924e-06      29.8075 
         -50      2.03092  0.000104306 -5.44549e-06      29.8074 
         -50      2.09389  0.000104117 -5.11347e-06      29.8073 
         -50      2.15782  0.000103863 -4.68439e-06      29.8071 
         -50      2.22272  0.000103619 -4.15397e-06       29.807 
         -50      2.28857  0.000103457  -3.5224e-06      29.8069 
         -50      2.35539  0.000103439 -2.79388e-06      29.8067 
         -50      2.42317  0.000103615 -1.97623e-06      29.8065 
         -50      2.49191  0.000104022 -1.08056e-06      29.8064 
         -50      2.56161  0.000104672 -1.20384e-07      29.8062 
         -50      2.63226   0.00010556  8.88811e-07       29.806 
         -50      2.70389  0.000106652  1.93041e-06      29.8059 
         -50      2.77648  0.000107893  2.98697e-06      29.8057 
         -50      2.85002  0.000109202  4.04152e-06      29.8055 
         -50      2.92453  0.000110481  5.07788e-06      29.8053 
         -50            3  0.000111616  6.08148e-06       29.805 
         -25            0  1.02171e-19  4.55398e-24      28.6166 
         -25      0.00048  1.01754e-05  4.79919e-10      28.6166 
         -25     0.001922  3.59862e-05  2.01125e-09      28.6166 
         -25     0.004326  6.56922e-05   4.8686e-09      28.6166 
         -25      0.00769  8.69026e-05  9.52483e-09      28.6166 
         -25     0.012017  9.33739e-05  1.66858e-08      28.6166 
         -25     0.017304  8.81871e-05  2.73043e-08      28.6166 
         -25     0.023553  8.10765e-05  4.26268e-08      28.6166 
         -25     0.030763  8.07058e-05  6.41957e-08      28.6166 
         -25     0.038936  8.70123e-05  9.38556e-08      28.6166 
         -25     0.048069  9.11505e-05  1.33671e-07      28.6166 
         -25     0.058163  8.75159e-05  1.85833e-07      28.6166 
         -25     0.069219    8.787e-05   2.5244e-07      28.6166 
         -25     0.081236  9.40794e-05  3.35171e-07      28.6166 
         -25     0.094215  9.26143e-05  4.36523e-07      28.6166 
         -25     0.108155  9.40118e-05  5.58656e-07      28.6166 
         -25     0.123056  9.40893e-05  7.03174e-07      28.6166 
         -25     0.138918  9.39898e-05  8.71689e-07      28.6166 
         -25     0.155744  9.39252e-05  1.06564e-06      28.6166 
         -25     0.173529  9.35508e-05  1.28605e-06      28.6166 
         -25     0.192276  9.25769e-05  1.53356e-06      28.6166 
         -25     0.211984   9.1276e-05  1.80825e-06      28.6166 
         -25     0.232655  9.02122e-05  2.10988e-06      28.6166 
         -25     0.254285  8.85417e-05  2.43801e-06      28.6166 
         -25     0.276877  8.70369e-05  2.79131e-06      28.6166 
         -25     0.300431  8.53848e-05  3.16906e-06      28.6166 
         -25     0.324946  8.36788e-05  3.57034e-06      28.6166 
         -25     0.350424  8.19933e-05  3.99594e-06      28.6166 
         -25     0.376861  8.03849e-05  4.44776e-06      28.6166 
         -25      0.40426  7.88943e-05  4.92846e-06      28.6166 
         -25     0.432621  7.75523e-05  5.44036e-06      28.6166 
         -25     0.461945  7.63856e-05  5.98468e-06      28.6166 
         -25     0.492228  7.54223e-05  6.56053e-06      28.6166 
         -25     0.523472  7.46917e-05   7.1647e-06      28.6166 
         -25     0.555678  7.42174e-05  7.79195e-06      28.6166 
         -25     0.588845  7.39938e-05  8.43665e-06      28.6166 
         -25     0.622976  7.39701e-05  9.09809e-06      28.6165 
         -25     0.658066  7.41841e-05  9.77278e-06      28.6165 
         -25     0.694117   7.4587e-05  1.04558e-05      28.6165 
         -25      0.73113  7.51148e-05  1.11456e-05      28.6165 
         -25     0.769107  7.57074e-05  1.18399e-05      28.6165 
         -25     0.808042  7.63104e-05  1.25355e-05      28.6165 
         -25     0.847939  7.68761e-05   1.3229e-05      28.6165 
         -25     0.888797  7.73643e-05  1.39165e-05      28.6165 
         -25      0.93062  7.77434e-05  1.45938e-05      28.6165 
         -25       0.9734  7.79905e-05   1.5257e-05      28.6164 
         -25      1.01714  7.80917e-05  1.59025e-05      28.6164 
         -25      1.06185  7.80415e-05  1.65273e-05      28.6164 
         -25      1.10751  7.78429e-05  1.71291e-05      28.6164 
         -25      1.15414  7.75058e-05  1.77064e-05      28.6164 
         -25      1.20173  7.70462e-05  1.82582e-05      28.6164 
         -25      1.25028  7.64851e-05  1.87838e-05      28.6163 
         -25      1.29979  7.58467e-05  1.92821e-05      28.6163 
         -25      1.35026   7.5157e-05  1.97507e-05      28.6163 
         -25       1.4017   7.4443e-05  2.01838e-05      28.6163 
         -25      1.45409  7.37313e-05  2.05705e-05      28.6162 
         -25      1.50745  7.30303e-05  2.08897e-05      28.6162 
         -25      1.56176  7.17214e-05  2.11086e-05      28.6162 
         -25      1.61705  7.08741e-05  2.13885e-05      28.6161 
         -25      1.67329  7.03454e-05  2.16904e-05      28.6161 
         -25      1.73049  7.00069e-05  2.19805e-05      28.6161 
         -25      1.78865  6.97461e-05    2.223e-05       28.616 
         -25      1.84778  6.94683e-05   2.2416e-05       28.616 
         -25      1.90786  6.90964e-05  2.25209e-05       28.616 
         -25      1.96891  6.85724e-05  2.25332e-05      28.6159 
         -25      2.03092  6.78569e-05  2.24472e-05      28.6159 
         -25      2.09389  6.69287e-05  2.22624e-05      28.6158 
         -25      2.15782  6.57852e-05   2.1984e-05      28.6158 
         -25      2.22272  6.44398e-05  2.16218e-05      28.6157 
         -25      2.28857  6.29218e-05  2.11899e-05      28.6157 
         -25      2.35539  6.12736e-05  2.07064e-05      28.6156 
         -25      2.42317  5.95488e-05  2.01918e-05      28.6156 
         -25      2.49191  5.78096e-05  1.96691e-05      28.6155 
         -25      2.56161  5.61236e-05  1.91623e-05      28.6154 
         -25      2.63226  5.45607e-05  1.86953e-05      28.6154 
         -25      2.70389  5.31889e-05  1.82914e-05      28.6153 
         -25      2.77648  5.20721e-05  1.79716e-05      28.6152 
         -25      2.85002  5.12644e-05  1.77543e-05      28.6152 
         -25      2.92453  5.08077e-05  1.76536e-05      28.6151 
         -25            3  5.07276e-05   1.7679e-05       28.615 
           0            0  2.97484e-19 -4.33559e-19      27.6171 
           0      0.00048  4.45081e-05 -2.83042e-05      27.6172 
           0     0.001922  0.000154275 -9.76266e-05      27.6173 
           0     0.004326  0.000270961 -0.000169769      27.6176 
           0      0.00769  0.000335345 -0.000206224      27.6179 
           0     0.012017  0.000322418 -0.000191364      27.6183 
           0     0.017304   0.00025631 -0.000142266      27.6187 
           0     0.023553  0.000192945 -9.69946e-05      27.6191 
           0     0.030763  0.000176541 -8.53918e-05      27.6195 
           0     0.038936   0.00019923 -0.000101662      27.6199 
           0     0.048069  0.000206068 -0.000107073      27.6204 
           0     0.058163  0.000168093 -7.87499e-05      27.6208 
           0     0.069219  0.000160833 -6.54986e-05      27.6213 
           0     0.081236   0.00019033  -8.4699e-05      27.6218 
           0     0.094215   0.00017221 -6.87342e-05      27.6223 
           0     0.108155  0.000174824 -6.66813e-05      27.6228 
           0     0.123056  0.000172169 -6.31045e-05      27.6233 
           0     0.138918  0.000170694 -6.00971e-05      27.6238 
           0     0.155744  0.000171328 -5.80073e-05      27.6243 
           0     0.173529  0.000171798 -5.61371e-05      27.6248 
           0     0.192276  0.000170301  -5.3873e-05      27.6254 
           0     0.211984  0.000168423 -5.16224e-05      27.6259 
           0     0.232655  0.000169204 -5.03048e-05      27.6265 
           0     0.254285  0.000167221 -4.83224e-05       27.627 
           0     0.276877  0.000166584 -4.68443e-05      27.6276 
           0     0.300431  0.000165573 -4.53457e-05      27.6281 
           0     0.324946  0.000164439 -4.39001e-05      27.6287 
           0     0.350424  0.000163345 -4.25344e-05      27.6292 
           0     0.376861  0.000162239 -4.12095e-05      27.6298 
           0      0.40426  0.000161146 -3.99282e-05      27.6303 
           0     0.432621   0.00016008 -3.86858e-05      27.6309 
           0     0.461945   0.00015904 -3.74805e-05      27.6315 
           0     0.492228   0.00015803  -3.6309e-05      27.6321 
           0     0.523472  0.000157039 -3.51677e-05      27.6326 
           0     0.555678  0.000156049 -3.40585e-05      27.6332 
           0     0.588845  0.000155039 -3.29776e-05      27.6338 
           0     0.622976  0.000153978 -3.19233e-05      27.6343 
           0     0.658066  0.000152831 -3.08945e-05      27.6349 
           0     0.694117  0.000151564 -2.98974e-05      27.6355 
           0      0.73113  0.000150145 -2.89284e-05       27.636 
           0     0.769107  0.000148544 -2.79823e-05      27.6366 
           0     0.808042  0.000146737 -2.70661e-05      27.6372 
           0     0.847939  0.000144714 -2.61799e-05      27.6378 
           0     0.888797  0.000142475 -2.53234e-05      27.6383 
           0      0.93062  0.000140026 -2.44912e-05      27.6389 
           0       0.9734  0.000137388 -2.36789e-05      27.6395 
           0      1.01714  0.000134573 -2.28864e-05        27.64 
           0      1.06185  0.000131608 -2.21186e-05      27.6406 
           0      1.10751  0.000128525 -2.13781e-05      27.6411 
           0      1.15414   0.00012535 -2.06634e-05      27.6417 
           0      1.20173   0.00012211   -1.997e-05      27.6422 
           0      1.25028   0.00011883 -1.92906e-05      27.6428 
           0      1.29979  0.000115526 -1.86322e-05      27.6433 
           0      1.35026  0.000112232 -1.79928e-05      27.6439 
           0       1.4017  0.000108955 -1.73679e-05      27.6444 
           0      1.45409    0.0001057 -1.67812e-05       27.645 
           0      1.50745  0.000102458 -1.62133e-05      27.6455 
           0      1.56176  9.92065e-05 -1.56715e-05       27.646 
           0      1.61705  9.59373e-05 -1.51444e-05      27.6466 
           0      1.67329  9.26431e-05 -1.46298e-05      27.6471 
           0      1.73049   8.9313e-05 -1.41488e-05      27.6476 
           0      1.78865  8.59542e-05 -1.37209e-05      27.6482 
           0      1.84778  8.26517e-05 -1.33118e-05      27.6487 
           0      1.90786  7.94517e-05 -1.29024e-05      27.6492 
           0      1.96891    7.639e-05  -1.2539e-05      27.6497 
           0      2.03092  7.35402e-05 -1.21621e-05      27.6502 
           0      2.09389  7.08017e-05 -1.18256e-05      27.6507 
           0      2.15782  6.81471e-05 -1.15571e-05      27.6512 
           0      2.22272  6.56138e-05 -1.13823e-05      27.6517 
           0      2.28857   6.3089e-05 -1.12677e-05      27.6522 
           0      2.35539  6.04957e-05 -1.11962e-05      27.6526 
           0      2.42317  5.77925e-05 -1.11762e-05      27.6531 
           0      2.49191  5.49749e-05 -1.12316e-05      27.6536 
           0      2.56161  5.20635e-05 -1.13849e-05      27.6541 
           0      2.63226   4.9082e-05 -1.16311e-05      27.6545 
           0      2.70389  4.60171e-05 -1.19011e-05       27.655 
           0      2.77648   4.2809e-05 -1.21196e-05      27.6554 
           0      2.85002  3.96113e-05 -1.25616e-05      27.6559 
           0      2.92453  3.64189e-05 -1.29903e-05      27.6563 
           0            3  3.33466e-05 -1.34181e-05      27.6568 
          20            0           -0           -0      27.0615 
          20      0.00048  8.86081e-06   9.0379e-10      27.0615 
          20     0.001922  3.15322e-05   3.4571e-09      27.0615 
          20     0.004326  5.82662e-05  7.22934e-09      27.0615 
          20      0.00769  7.87549e-05  1.16791e-08      27.0615 
          20     0.012017  8.77626e-05  1.64108e-08      27.0615 
          20     0.017304  8.77465e-05  2.14672e-08      27.0615 
          20     0.023553  8.66547e-05  2.76675e-08      27.0615 
          20     0.030763  9.15274e-05  3.68967e-08      27.0615 
          20     0.038936  0.000102167  5.23277e-08      27.0615 
          20     0.048069  0.000111093  7.84756e-08      27.0615 
          20     0.058163  0.000113505  1.21068e-07      27.0615 
          20     0.069219  0.000118988  1.86619e-07      27.0615 
          20     0.081236  0.000128948  2.81638e-07      27.0615 
          20     0.094215  0.000132068  4.14704e-07      27.0615 
          20     0.108155  0.000136993  5.94627e-07      27.0615 
          20     0.123056  0.000140213  8.28118e-07      27.0615 
          20     0.138918  0.000142667  1.12188e-06      27.0615 
          20     0.155744   0.00014456  1.48175e-06      27.0615 
          20     0.173529  0.000145669  1.91138e-06      27.0615 
          20     0.192276  0.000145833  2.41169e-06      27.0615 
          20     0.211984   0.00014536  2.98014e-06      27.0615 
          20     0.232655  0.000144803  3.61208e-06      27.0615 
          20     0.254285  0.000143528  4.30309e-06      27.0615 
          20     0.276877  0.000142177  5.04313e-06      27.0615 
          20     0.300431  0.000140567   5.8212e-06      27.0615 
          20     0.324946  0.000138672  6.62084e-06      27.0615 
          20     0.350424   0.00013646  7.42615e-06      27.0615 
          20     0.376861  0.000133924  8.22092e-06      27.0615 
          20      0.40426  0.000131013  8.99596e-06      27.0615 
          20     0.432621  0.000127727  9.74436e-06      27.0615 
          20     0.461945  0.000124104  1.04635e-05      27.0615 
          20     0.492228  0.000120227  1.11555e-05      27.0614 
          20     0.523472  0.000116224  1.18277e-05      27.0614 
          20     0.555678  0.000112273  1.24916e-05      27.0614 
          20     0.588845  0.000108583  1.31619e-05      27.0614 
          20     0.622976   0.00010537  1.38549e-05      27.0614 
          20     0.658066  0.000102798  1.45844e-05      27.0614 
          20     0.694117  0.000100897  1.53582e-05      27.0614 
          20      0.73113  9.95075e-05  1.61702e-05      27.0613 
          20     0.769107  9.86268e-05  1.70153e-05      27.0613 
          20     0.808042   9.8021e-05  1.78786e-05      27.0613 
          20     0.847939  9.74772e-05  1.87414e-05      27.0613 
          20     0.888797  9.68332e-05  1.95884e-05      27.0613 
          20      0.93062  9.59729e-05  2.04061e-05      27.0612 
          20       0.9734  9.48203e-05  2.11807e-05      27.0612 
          20      1.01714  9.33136e-05  2.19024e-05      27.0612 
          20      1.06185  9.14652e-05  2.25627e-05      27.0611 
          20      1.10751  8.93213e-05  2.31576e-05      27.0611 
          20      1.15414  8.69517e-05  2.36915e-05      27.0611 
          20      1.20173  8.44004e-05  2.41591e-05       27.061 
          20      1.25028  8.17351e-05  2.45661e-05       27.061 
          20      1.29979  7.89851e-05  2.49083e-05      27.0609 
          20      1.35026  7.61866e-05  2.51864e-05      27.0609 
          20       1.4017  7.33804e-05  2.54044e-05      27.0609 
          20      1.45409  7.05946e-05  2.55643e-05      27.0608 
          20      1.50745  6.78397e-05  2.56638e-05      27.0608 
          20      1.56176   6.5118e-05  2.57007e-05      27.0607 
          20      1.61705  6.24501e-05  2.56823e-05      27.0606 
          20      1.67329  5.98651e-05  2.56071e-05      27.0606 
          20      1.73049  5.73703e-05  2.54767e-05      27.0605 
          20      1.78865  5.49907e-05     2.53e-05      27.0604 
          20      1.84778  5.27267e-05  2.50714e-05      27.0604 
          20      1.90786  5.05927e-05  2.47906e-05      27.0603 
          20      1.96891  4.86076e-05  2.44655e-05      27.0602 
          20      2.03092  4.67779e-05     2.41e-05      27.0601 
          20      2.09389  4.50993e-05  2.36933e-05      27.0601 
          20      2.15782  4.35217e-05  2.32355e-05        27.06 
          20      2.22272  4.20268e-05   2.2725e-05      27.0599 
          20      2.28857  4.05996e-05  2.21598e-05      27.0598 
          20      2.35539  3.92157e-05  2.15345e-05      27.0597 
          20      2.42317  3.78395e-05  2.08444e-05      27.0596 
          20      2.49191   3.6449e-05  2.00935e-05      27.0595 
          20      2.56161  3.51525e-05   1.9298e-05      27.0594 
          20      2.63226  3.39044e-05  1.84672e-05      27.0593 
          20      2.70389  3.28013e-05  1.76205e-05      27.0592 
          20      2.77648  3.19006e-05  1.67746e-05      27.0591 
          20      2.85002   3.1215e-05  1.59425e-05      27.0589 
          20      2.92453  3.07896e-05  1.51377e-05      27.0588 
          20            3  3.06575e-05  1.43748e-05      27.0587 
          40            0           -0           -0       26.431 
          40      0.00048  7.56373e-06  2.12428e-10       26.431 
          40     0.001922  2.67857e-05  2.03586e-09       26.431 
          40     0.004326  4.90118e-05  8.99965e-09       26.431 
          40      0.00769  6.50571e-05  2.68726e-08       26.431 
          40     0.012017  7.01722e-05  6.35437e-08       26.431 
          40     0.017304  6.63709e-05  1.28732e-07       26.431 
          40     0.023553  6.04989e-05   2.3378e-07       26.431 
          40     0.030763  5.86189e-05   3.9121e-07       26.431 
          40     0.038936  6.04461e-05  6.14399e-07       26.431 
          40     0.048069  5.93255e-05  9.16887e-07       26.431 
          40     0.058163  5.10103e-05  1.31207e-06       26.431 
          40     0.069219  4.39726e-05  1.81255e-06       26.431 
          40     0.081236  3.95378e-05  2.42944e-06       26.431 
          40     0.094215  2.78776e-05  3.17245e-06       26.431 
          40     0.108155  1.67802e-05  4.04896e-06       26.431 
          40     0.123056  3.36729e-06  5.06383e-06       26.431 
          40     0.138918 -1.13013e-05  6.21944e-06       26.431 
          40     0.155744 -2.68044e-05  7.51585e-06       26.431 
          40     0.173529 -4.30912e-05  8.95001e-06       26.431 
          40     0.192276 -6.00659e-05  1.05172e-05       26.431 
          40     0.211984 -7.72225e-05  1.22103e-05       26.431 
          40     0.232655 -9.38621e-05  1.40212e-05       26.431 
          40     0.254285 -0.000110338  1.59411e-05       26.431 
          40     0.276877 -0.000125865  1.79595e-05       26.431 
          40     0.300431 -0.000140488  2.00672e-05       26.431 
          40     0.324946 -0.000154007  2.22563e-05       26.431 
          40     0.350424  -0.00016627  2.45192e-05       26.431 
          40     0.376861 -0.000177169   2.6849e-05       26.431 
          40      0.40426 -0.000186642  2.92409e-05       26.431 
          40     0.432621 -0.000194655  3.16918e-05       26.431 
          40     0.461945 -0.000201196  3.42006e-05       26.431 
          40     0.492228 -0.000206258  3.67676e-05       26.431 
          40     0.523472 -0.000209837  3.93952e-05       26.431 
          40     0.555678  -0.00021193  4.20853e-05       26.431 
          40     0.588845  -0.00021256  4.48374e-05       26.431 
          40     0.622976 -0.000211799  4.76486e-05       26.431 
          40     0.658066 -0.000209653  5.05319e-05       26.431 
          40     0.694117 -0.000206194   5.3484e-05       26.431 
          40      0.73113 -0.000201525  5.64962e-05       26.431 
          40     0.769107 -0.000195762  5.95589e-05       26.431 
          40     0.808042  -0.00018904  6.26611e-05       26.431 
          40     0.847939 -0.000181497  6.57917e-05       26.431 
          40     0.888797 -0.000173282  6.89377e-05       26.431 
          40      0.93062 -0.000164538  7.20854e-05       26.431 
          40       0.9734 -0.000155409  7.52185e-05       26.431 
          40      1.01714 -0.000146019  7.83204e-05       26.431 
          40      1.06185 -0.000136482  8.13724e-05       26.431 
          40      1.10751 -0.000126883   8.4355e-05      26.4309 
          40      1.15414 -0.000117287  8.72479e-05      26.4309 
          40      1.20173 -0.000107728  9.00306e-05      26.4309 
          40      1.25028 -9.82133e-05  9.26843e-05      26.4309 
          40      1.29979 -8.87263e-05  9.51929e-05      26.4309 
          40      1.35026  -7.9235e-05   9.7546e-05      26.4309 
          40       1.4017 -6.97094e-05  9.97408e-05      26.4309 
          40      1.45409 -6.01378e-05  0.000101787      26.4309 
          40      1.50745  -5.0568e-05   0.00010371      26.4309 
          40      1.56176 -4.12524e-05  0.000105351      26.4309 
          40      1.61705 -3.16245e-05  0.000106816      26.4309 
          40      1.67329  -2.1759e-05  0.000108096      26.4309 
          40      1.73049 -1.17331e-05  0.000109185      26.4309 
          40      1.78865 -1.62798e-06  0.000110078      26.4309 
          40      1.84778  8.47295e-06  0.000110769      26.4309 
          40      1.90786  1.84822e-05  0.000111257      26.4308 
          40      1.96891  2.83144e-05   0.00011154      26.4308 
          40      2.03092   3.7884e-05  0.000111617      26.4308 
          40      2.09389  4.71082e-05  0.000111488      26.4308 
          40      2.15782  5.59054e-05  0.000111156      26.4308 
          40      2.22272  6.42019e-05  0.000110624      26.4308 
          40      2.28857  7.19288e-05  0.000109894      26.4308 
          40      2.35539  7.90261e-05  0.000108973      26.4308 
          40      2.42317  8.54433e-05  0.000107866      26.4308 
          40      2.49191  9.11396e-05   0.00010658      26.4307 
          40      2.56161  9.60882e-05  0.000105122      26.4307 
          40      2.63226  0.000100275  0.000103501      26.4307 
          40      2.70389  0.000103701  0.000101727      26.4307 
          40      2.77648  0.000106381  9.98088e-05      26.4307 
          40      2.85002  0.000108347  9.77581e-05      26.4307 
          40      2.92453  0.000109645  9.55868e-05      26.4306 
          40            3  0.000110337  9.33078e-05      26.4306 
          60            0           -0           -0       25.842 
          60      0.00048  8.44169e-06  1.15838e-10       25.842 
          60     0.001922   3.0438e-05  1.12402e-09       25.842 
          60     0.004326  5.76671e-05  5.02645e-09       25.842 
          60      0.00769  8.12694e-05  1.52138e-08       25.842 
          60     0.012017  9.66196e-05  3.65659e-08       25.842 
          60     0.017304  0.000105524  7.55012e-08       25.842 
          60     0.023553  0.000114394  1.40105e-07       25.842 
          60     0.030763  0.000128842  2.40119e-07       25.842 
          60     0.038936  0.000148362   3.8699e-07       25.842 
          60     0.048069  0.000166293  5.93627e-07       25.842 
          60     0.058163  0.000178251  8.74345e-07       25.842 
          60     0.069219  0.000192002  1.24452e-06       25.842 
          60     0.081236  0.000208438  1.72014e-06       25.842 
          60     0.094215  0.000217763  2.31758e-06       25.842 
          60     0.108155  0.000227052  3.05277e-06       25.842 
          60     0.123056  0.000233189  3.94104e-06       25.842 
          60     0.138918  0.000236863   4.9963e-06       25.842 
          60     0.155744  0.000238206  6.23082e-06       25.842 
          60     0.173529  0.000237046  7.65409e-06       25.842 
          60     0.192276  0.000233336  9.27385e-06       25.842 
          60     0.211984  0.000227492   1.1095e-05       25.842 
          60     0.232655  0.000220187  1.31198e-05       25.842 
          60     0.254285  0.000211159  1.53464e-05       25.842 
          60     0.276877  0.000201296  1.77742e-05       25.842 
          60     0.300431   0.00019074  2.03981e-05       25.842 
          60     0.324946  0.000179908  2.32097e-05       25.842 
          60     0.350424  0.000169186  2.62013e-05       25.842 
          60     0.376861  0.000158924  2.93641e-05       25.842 
          60      0.40426  0.000149417  3.26899e-05       25.842 
          60     0.432621  0.000140913  3.61691e-05       25.842 
          60     0.461945  0.000133606  3.97914e-05       25.842 
          60     0.492228  0.000127643  4.35444e-05       25.842 
          60     0.523472   0.00012312   4.7416e-05       25.842 
          60     0.555678  0.000120081  5.13946e-05       25.842 
          60     0.588845  0.000118498  5.54733e-05       25.842 
          60     0.622976  0.000118243  5.96493e-05       25.842 
          60     0.658066  0.000119261  6.38803e-05       25.842 
          60     0.694117  0.000121356  6.81558e-05       25.842 
          60      0.73113  0.000124257  7.24702e-05       25.842 
          60     0.769107  0.000127688  7.68131e-05       25.842 
          60     0.808042  0.000131374  8.11686e-05       25.842 
          60     0.847939  0.000135048  8.55183e-05       25.842 
          60     0.888797  0.000138463  8.98408e-05       25.842 
          60      0.93062  0.000141396  9.41142e-05       25.842 
          60       0.9734  0.000143654  9.83155e-05       25.842 
          60      1.01714  0.000145086  0.000102425       25.842 
          60      1.06185  0.000145586  0.000106426       25.842 
          60      1.10751  0.000145098  0.000110306       25.842 
          60      1.15414  0.000143616  0.000114057      25.8419 
          60      1.20173  0.000141188  0.000117673      25.8419 
          60      1.25028  0.000137908  0.000121154      25.8419 
          60      1.29979  0.000133912  0.000124495      25.8419 