Variables = x, y, u, v, p

Zone, I=2080, F=POINT
         -50            0            0            0     -31.7648 
         -50      0.00048  3.01192e-06 -6.03803e-10     -31.7648 
         -50     0.001922  1.06607e-05 -1.90655e-09     -31.7648 
         -50     0.004326  1.94934e-05 -2.43645e-09     -31.7648 
         -50      0.00769  2.58649e-05  5.41821e-11     -31.7648 
         -50     0.012017  2.79249e-05   8.3165e-09     -31.7648 
         -50     0.017304  2.65213e-05  2.52606e-08     -31.7648 
         -50     0.023553   2.4372e-05  5.36382e-08     -31.7648 
         -50     0.030763  2.37628e-05  9.57526e-08     -31.7648 
         -50     0.038936  2.43237e-05   1.5336e-07     -31.7648 
         -50     0.048069  2.31428e-05   2.2773e-07     -31.7648 
         -50     0.058163  1.85327e-05  3.20156e-07     -31.7648 
         -50     0.069219  1.43875e-05  4.32847e-07     -31.7648 
         -50     0.081236  1.19457e-05  5.70389e-07     -31.7648 
         -50     0.094215  6.88812e-06  7.30502e-07     -31.7648 
         -50     0.108155  2.72571e-06  9.13206e-07     -31.7648 
         -50     0.123056 -1.75317e-06  1.11854e-06     -31.7648 
         -50     0.138918 -6.23525e-06  1.34553e-06     -31.7648 
         -50     0.155744 -1.06283e-05  1.59313e-06     -31.7648 
         -50     0.173529 -1.49696e-05  1.85974e-06     -31.7648 
         -50     0.192276 -1.92864e-05  2.14313e-06     -31.7648 
         -50     0.211984 -2.34724e-05  2.44051e-06     -31.7648 
         -50     0.232655 -2.73542e-05  2.75014e-06     -31.7648 
         -50     0.254285 -3.10953e-05  3.07404e-06     -31.7648 
         -50     0.276877 -3.45018e-05  3.40671e-06     -31.7648 
         -50     0.300431 -3.76311e-05  3.75612e-06     -31.7648 
         -50     0.324946 -4.04656e-05  4.12892e-06     -31.7647 
         -50     0.350424 -4.29927e-05  4.52592e-06     -31.7647 
         -50     0.376861 -4.52029e-05  4.94122e-06     -31.7647 
         -50      0.40426 -4.70891e-05  5.36237e-06     -31.7647 
         -50     0.432621 -4.86437e-05  5.77163e-06     -31.7647 
         -50     0.461945 -4.98574e-05  6.14905e-06     -31.7647 
         -50     0.492228 -5.07176e-05  6.47796e-06     -31.7647 
         -50     0.523472 -5.12078e-05  6.75389e-06     -31.7647 
         -50     0.555678  -5.1309e-05   6.9973e-06     -31.7646 
         -50     0.588845 -5.10036e-05   7.2718e-06     -31.7646 
         -50     0.622976 -5.03225e-05  7.68176e-06     -31.7646 
         -50     0.658066 -4.92385e-05  8.16155e-06     -31.7646 
         -50     0.694117 -4.77047e-05  8.67436e-06     -31.7645 
         -50      0.73113 -4.57615e-05  9.20823e-06     -31.7645 
         -50     0.769107 -4.34512e-05  9.75397e-06     -31.7645 
         -50     0.808042 -4.08178e-05  1.03048e-05     -31.7645 
         -50     0.847939 -3.79049e-05   1.0856e-05     -31.7644 
         -50     0.888797 -3.47555e-05  1.14043e-05     -31.7644 
         -50      0.93062   -3.141e-05  1.19473e-05     -31.7643 
         -50       0.9734 -2.79072e-05  1.24823e-05     -31.7643 
         -50      1.01714 -2.42808e-05  1.30059e-05     -31.7643 
         -50      1.06185 -2.05611e-05  1.35133e-05     -31.7642 
         -50      1.10751 -1.67733e-05   1.3998e-05     -31.7642 
         -50      1.15414 -1.29383e-05  1.44519e-05     -31.7641 
         -50      1.20173 -9.07376e-06  1.48666e-05      -31.764 
         -50      1.25028 -5.19359e-06  1.52349e-05      -31.764 
         -50      1.29979 -1.31113e-06  1.55546e-05     -31.7639 
         -50      1.35026  2.55901e-06  1.58338e-05     -31.7638 
         -50       1.4017  6.39574e-06   1.6098e-05     -31.7638 
         -50      1.45409  1.01688e-05   1.6401e-05     -31.7637 
         -50      1.50745   1.3842e-05  1.68301e-05     -31.7636 
         -50      1.56176  1.76033e-05  1.69164e-05     -31.7635 
         -50      1.61705  2.07664e-05  1.70009e-05     -31.7634 
         -50      1.67329   2.3565e-05  1.70911e-05     -31.7633 
         -50      1.73049  2.61844e-05  1.71874e-05     -31.7632 
         -50      1.78865  2.87604e-05  1.72838e-05     -31.7631 
         -50      1.84778  3.13814e-05  1.73685e-05      -31.763 
         -50      1.90786  3.40894e-05  1.74243e-05     -31.7629 
         -50      1.96891  3.68854e-05  1.74297e-05     -31.7628 
         -50      2.03092  3.97332e-05  1.73602e-05     -31.7627 
         -50      2.09389  4.25659e-05   1.7189e-05     -31.7625 
         -50      2.15782  4.52927e-05   1.6889e-05     -31.7624 
         -50      2.22272  4.78078e-05  1.64338e-05     -31.7622 
         -50      2.28857  4.99991e-05     1.58e-05     -31.7621 
         -50      2.35539  5.17571e-05   1.4968e-05     -31.7619 
         -50      2.42317  5.29858e-05  1.39242e-05     -31.7618 
         -50      2.49191  5.36106e-05   1.2663e-05     -31.7616 
         -50      2.56161  5.35893e-05   1.1187e-05     -31.7614 
         -50      2.63226  5.29186e-05  9.50953e-06     -31.7612 
         -50      2.70389  5.16407e-05   7.6545e-06      -31.761 
         -50      2.77648  4.98477e-05  5.65798e-06     -31.7608 
         -50      2.85002  4.76815e-05  3.56693e-06     -31.7606 
         -50      2.92453  4.53312e-05  1.43902e-06     -31.7604 
         -50            3  4.30235e-05 -6.59365e-07     -31.7602 
         -25            0  2.09666e-20 -2.86061e-24     -30.4978 
         -25      0.00048  2.08451e-06 -2.94155e-10     -30.4978 
         -25     0.001922  7.33111e-06 -1.14865e-09     -30.4978 
         -25     0.004326  1.32382e-05 -2.49716e-09     -30.4978 
         -25      0.00769  1.71787e-05  -4.2956e-09     -30.4978 
         -25     0.012017  1.78509e-05  -6.6149e-09     -30.4978 
         -25     0.017304   1.5938e-05 -9.73617e-09     -30.4978 
         -25     0.023553  1.34977e-05 -1.42489e-08     -30.4978 
         -25     0.030763  1.22753e-05 -2.11052e-08     -30.4978 
         -25     0.038936  1.20721e-05 -3.16227e-08     -30.4978 
         -25     0.048069  1.08253e-05 -4.73811e-08     -30.4978 
         -25     0.058163  7.35907e-06 -7.00084e-08     -30.4978 
         -25     0.069219  4.56945e-06 -1.00774e-07     -30.4978 
         -25     0.081236  3.39708e-06 -1.39923e-07     -30.4978 
         -25     0.094215  7.00243e-07 -1.90185e-07     -30.4978 
         -25     0.108155 -9.48367e-07 -2.53245e-07     -30.4978 
         -25     0.123056 -2.44596e-06 -3.30373e-07     -30.4978 
         -25     0.138918 -3.58721e-06 -4.23178e-07     -30.4978 
         -25     0.155744 -4.33862e-06 -5.33232e-07     -30.4978 
         -25     0.173529 -4.77127e-06 -6.62005e-07     -30.4978 
         -25     0.192276 -4.95396e-06 -8.10993e-07     -30.4978 
         -25     0.211984 -4.86317e-06 -9.81631e-07     -30.4978 
         -25     0.232655 -4.42795e-06 -1.17527e-06     -30.4978 
         -25     0.254285 -3.82375e-06 -1.39276e-06     -30.4978 
         -25     0.276877 -2.96509e-06 -1.63588e-06     -30.4978 
         -25     0.300431 -1.94978e-06 -1.90547e-06     -30.4978 
         -25     0.324946 -8.16683e-07 -2.20081e-06     -30.4978 
         -25     0.350424  3.90281e-07 -2.52158e-06     -30.4978 
         -25     0.376861  1.62366e-06 -2.86778e-06     -30.4978 
         -25      0.40426  2.83542e-06  -3.2398e-06     -30.4978 
         -25     0.432621  3.97902e-06 -3.63822e-06     -30.4978 
         -25     0.461945  5.01235e-06  -4.0636e-06     -30.4977 
         -25     0.492228  5.90011e-06 -4.51609e-06     -30.4977 
         -25     0.523472  6.61624e-06 -4.99523e-06     -30.4977 
         -25     0.555678  7.14472e-06 -5.49943e-06     -30.4977 
         -25     0.588845  7.47906e-06  -6.0255e-06     -30.4977 
         -25     0.622976  7.63005e-06 -6.56881e-06     -30.4977 
         -25     0.658066   7.5957e-06 -7.12411e-06     -30.4977 
         -25     0.694117  7.40403e-06 -7.69289e-06     -30.4977 
         -25      0.73113  7.11058e-06 -8.27657e-06     -30.4977 
         -25     0.769107  6.76647e-06 -8.87424e-06     -30.4977 
         -25     0.808042  6.41724e-06 -9.48271e-06     -30.4977 
         -25     0.847939  6.10177e-06 -1.00973e-05     -30.4976 
         -25     0.888797  5.85166e-06  -1.0712e-05     -30.4976 
         -25      0.93062  5.69076e-06 -1.13204e-05     -30.4976 
         -25       0.9734  5.63518e-06 -1.19162e-05     -30.4976 
         -25      1.01714  5.69347e-06  -1.2494e-05     -30.4976 
         -25      1.06185  5.86744e-06 -1.30499e-05     -30.4976 
         -25      1.10751  6.15317e-06 -1.35822e-05     -30.4975 
         -25      1.15414  6.54254e-06 -1.40911e-05     -30.4975 
         -25      1.20173  7.02495e-06 -1.45784e-05     -30.4975 
         -25      1.25028  7.58961e-06 -1.50471e-05     -30.4975 
         -25      1.29979  8.22782e-06 -1.54987e-05     -30.4975 
         -25      1.35026  8.93561e-06 -1.59305e-05     -30.4974 
         -25       1.4017  9.71592e-06 -1.63305e-05     -30.4974 
         -25      1.45409  1.05813e-05 -1.66715e-05     -30.4974 
         -25      1.50745  1.15637e-05  -1.6904e-05     -30.4973 
         -25      1.56176  1.28941e-05 -1.71865e-05     -30.4973 
         -25      1.61705  1.41073e-05 -1.74544e-05     -30.4973 
         -25      1.67329  1.53467e-05 -1.76861e-05     -30.4972 
         -25      1.73049  1.67283e-05 -1.78642e-05     -30.4972 
         -25      1.78865  1.83395e-05 -1.79761e-05     -30.4972 
         -25      1.84778  2.02391e-05 -1.80132e-05     -30.4971 
         -25      1.90786  2.24572e-05 -1.79718e-05     -30.4971 
         -25      1.96891   2.4997e-05 -1.78523e-05      -30.497 
         -25      2.03092  2.78363e-05 -1.76592e-05      -30.497 
         -25      2.09389  3.09298e-05 -1.74007e-05     -30.4969 
         -25      2.15782  3.42114e-05 -1.70886e-05     -30.4969 
         -25      2.22272  3.75999e-05 -1.67374e-05     -30.4968 
         -25      2.28857  4.10012e-05 -1.63637e-05     -30.4968 
         -25      2.35539  4.43142e-05 -1.59859e-05     -30.4967 
         -25      2.42317  4.74357e-05 -1.56229e-05     -30.4967 
         -25      2.49191  5.02648e-05 -1.52941e-05     -30.4966 
         -25      2.56161    5.271e-05 -1.50175e-05     -30.4965 
         -25      2.63226  5.46937e-05 -1.48099e-05     -30.4964 
         -25      2.70389  5.61574e-05 -1.46856e-05     -30.4964 
         -25      2.77648  5.70657e-05 -1.46557e-05     -30.4963 
         -25      2.85002  5.74111e-05 -1.47275e-05     -30.4962 
         -25      2.92453  5.72153e-05 -1.49041e-05     -30.4961 
         -25            3  5.65304e-05 -1.51841e-05      -30.496 
           0            0   1.0201e-19 -1.58334e-19      -29.436 
           0      0.00048  1.50379e-05 -9.20463e-06      -29.436 
           0     0.001922  5.19556e-05  -3.1521e-05     -29.4361 
           0     0.004326  9.05855e-05 -5.40373e-05     -29.4362 
           0      0.00769  0.000110335 -6.39428e-05     -29.4365 
           0     0.012017  0.000102301 -5.65008e-05     -29.4368 
           0     0.017304  7.46346e-05 -3.83113e-05     -29.4372 
           0     0.023553  4.68952e-05 -2.30024e-05     -29.4377 
           0     0.030763  3.52747e-05 -2.08249e-05     -29.4382 
           0     0.038936  3.83031e-05 -2.89652e-05     -29.4387 
           0     0.048069  3.73246e-05 -3.26053e-05     -29.4391 
           0     0.058163  2.00368e-05 -2.25258e-05     -29.4396 
           0     0.069219  8.07893e-06 -1.58603e-05     -29.4401 
           0     0.081236  6.31839e-06 -2.23686e-05     -29.4407 
           0     0.094215 -3.76274e-06 -1.85741e-05     -29.4411 
           0     0.108155 -7.83188e-06 -1.73514e-05     -29.4417 
           0     0.123056 -1.39285e-05  -1.5313e-05     -29.4422 
           0     0.138918 -1.90742e-05  -1.4016e-05     -29.4428 
           0     0.155744 -2.24235e-05  -1.3555e-05     -29.4433 
           0     0.173529 -2.46593e-05 -1.31736e-05     -29.4439 
           0     0.192276 -2.68095e-05 -1.22494e-05     -29.4444 
           0     0.211984  -2.9021e-05 -1.11357e-05      -29.445 
           0     0.232655 -3.04449e-05 -1.08333e-05     -29.4456 
           0     0.254285 -3.15205e-05 -1.04341e-05     -29.4462 
           0     0.276877 -3.22579e-05 -9.93799e-06     -29.4468 
           0     0.300431  -3.2821e-05 -9.61205e-06     -29.4473 
           0     0.324946 -3.32014e-05 -9.28241e-06     -29.4479 
           0     0.350424 -3.34557e-05 -9.01696e-06     -29.4485 
           0     0.376861 -3.36342e-05 -8.80006e-06     -29.4491 
           0      0.40426 -3.37554e-05 -8.64355e-06     -29.4497 
           0     0.432621 -3.38368e-05 -8.52783e-06     -29.4503 
           0     0.461945 -3.38984e-05 -8.45139e-06     -29.4509 
           0     0.492228 -3.39416e-05 -8.41067e-06     -29.4515 
           0     0.523472  -3.3958e-05 -8.40098e-06     -29.4521 
           0     0.555678 -3.39351e-05 -8.42079e-06     -29.4527 
           0     0.588845 -3.38522e-05 -8.46393e-06     -29.4534 
           0     0.622976 -3.36786e-05 -8.52973e-06      -29.454 
           0     0.658066 -3.33857e-05 -8.61283e-06     -29.4546 
           0     0.694117 -3.29457e-05 -8.71066e-06     -29.4552 
           0      0.73113 -3.23297e-05 -8.82038e-06     -29.4558 
           0     0.769107 -3.15108e-05 -8.93803e-06     -29.4564 
           0     0.808042 -3.04713e-05 -9.06064e-06      -29.457 
           0     0.847939 -2.92061e-05 -9.18918e-06     -29.4576 
           0     0.888797 -2.77117e-05 -9.31781e-06     -29.4582 
           0      0.93062 -2.59972e-05 -9.44937e-06     -29.4588 
           0       0.9734 -2.40928e-05 -9.57319e-06     -29.4594 
           0      1.01714 -2.20179e-05 -9.68932e-06       -29.46 
           0      1.06185 -1.98066e-05 -9.80423e-06     -29.4606 
           0      1.10751 -1.74964e-05 -9.92119e-06     -29.4612 
           0      1.15414   -1.512e-05 -1.00383e-05     -29.4618 
           0      1.20173 -1.26994e-05 -1.01464e-05     -29.4623 
           0      1.25028  -1.0253e-05 -1.02397e-05     -29.4629 
           0      1.29979  -7.8037e-06 -1.03324e-05     -29.4635 
           0      1.35026  -5.3649e-06 -1.04208e-05     -29.4641 
           0       1.4017 -2.94662e-06  -1.0497e-05     -29.4647 
           0      1.45409 -5.61249e-07 -1.05709e-05     -29.4652 
           0      1.50745  1.77018e-06 -1.06488e-05     -29.4658 
           0      1.56176  4.01124e-06 -1.07138e-05     -29.4664 
           0      1.61705  6.12731e-06 -1.07538e-05     -29.4669 
           0      1.67329   8.0674e-06 -1.07819e-05     -29.4675 
           0      1.73049  9.77174e-06 -1.08206e-05      -29.468 
           0      1.78865  1.11955e-05 -1.08792e-05     -29.4686 
           0      1.84778  1.23512e-05 -1.09204e-05     -29.4691 
           0      1.90786  1.32924e-05 -1.09291e-05     -29.4697 
           0      1.96891   1.4017e-05 -1.09302e-05     -29.4702 
           0      2.03092  1.47036e-05 -1.08604e-05     -29.4708 
           0      2.09389  1.54254e-05 -1.07616e-05     -29.4713 
           0      2.15782  1.61917e-05 -1.06525e-05     -29.4718 
           0      2.22272  1.70116e-05  -1.0509e-05     -29.4723 
           0      2.28857  1.79672e-05 -1.03315e-05     -29.4728 
           0      2.35539  1.90547e-05 -1.01071e-05     -29.4734 
           0      2.42317  2.02698e-05 -9.83681e-06     -29.4739 
           0      2.49191   2.1606e-05  -9.5322e-06     -29.4744 
           0      2.56161  2.30503e-05 -9.20747e-06     -29.4749 
           0      2.63226  2.45751e-05 -8.86703e-06     -29.4754 
           0      2.70389  2.61272e-05  -8.4866e-06     -29.4758 
           0      2.77648  2.76393e-05 -8.05074e-06     -29.4763 
           0      2.85002  2.90712e-05 -7.75724e-06     -29.4768 
           0      2.92453  3.03017e-05 -7.47639e-06     -29.4773 
           0            3  3.13114e-05 -7.23063e-06     -29.4777 
          20            0           -0           -0     -28.8452 
          20      0.00048  1.41847e-06 -5.02684e-10     -28.8452 
          20     0.001922  4.83295e-06 -1.32517e-09     -28.8452 
          20     0.004326  8.15522e-06 -4.74654e-10     -28.8452 
          20      0.00769  9.18623e-06  5.13199e-09     -28.8452 
          20     0.012017  6.81636e-06  1.93532e-08     -28.8452 
          20     0.017304  1.58527e-06  4.63941e-08     -28.8452 
          20     0.023553  -4.8252e-06  9.04062e-08     -28.8452 
          20     0.030763  -1.0975e-05  1.55063e-07     -28.8452 
          20     0.038936 -1.70154e-05  2.43332e-07     -28.8452 
          20     0.048069 -2.46135e-05  3.57332e-07     -28.8452 
          20     0.058163 -3.46801e-05  4.98655e-07     -28.8452 
          20     0.069219  -4.4731e-05  6.68911e-07     -28.8452 
          20     0.081236 -5.38755e-05  8.70608e-07     -28.8452 
          20     0.094215 -6.45863e-05  1.10103e-06     -28.8452 
          20     0.108155 -7.45912e-05  1.35838e-06     -28.8452 
          20     0.123056 -8.44873e-05  1.64058e-06     -28.8452 
          20     0.138918 -9.39595e-05  1.94475e-06     -28.8452 
          20     0.155744 -0.000102843  2.26813e-06     -28.8452 
          20     0.173529 -0.000111067  2.60787e-06     -28.8452 
          20     0.192276 -0.000118584  2.96134e-06     -28.8452 
          20     0.211984 -0.000125285  3.32614e-06     -28.8452 
          20     0.232655 -0.000131042  3.70099e-06     -28.8452 
          20     0.254285 -0.000135943  4.08764e-06     -28.8452 
          20     0.276877 -0.000139909  4.48545e-06     -28.8452 
          20     0.300431  -0.00014302  4.89432e-06     -28.8452 
          20     0.324946 -0.000145333  5.31495e-06     -28.8452 
          20     0.350424 -0.000146945  5.74589e-06     -28.8452 
          20     0.376861 -0.000147988   6.1842e-06     -28.8452 
          20      0.40426 -0.000148621  6.62492e-06     -28.8452 
          20     0.432621 -0.000149017  7.05996e-06     -28.8452 
          20     0.461945 -0.000149344  7.47945e-06     -28.8451 
          20     0.492228 -0.000149744  7.87249e-06     -28.8451 
          20     0.523472  -0.00015032  8.22832e-06     -28.8451 
          20     0.555678 -0.000151111  8.53761e-06     -28.8451 
          20     0.588845 -0.000152084  8.79388e-06     -28.8451 
          20     0.622976 -0.000153125  8.99512e-06     -28.8451 
          20     0.658066 -0.000154052  9.14507e-06     -28.8451 
          20     0.694117 -0.000154641  9.25432e-06      -28.845 
          20      0.73113 -0.000154675    9.335e-06      -28.845 
          20     0.769107 -0.000153944  9.39757e-06      -28.845 
          20     0.808042 -0.000152321  9.45917e-06      -28.845 
          20     0.847939 -0.000149733  9.52912e-06      -28.845 
          20     0.888797 -0.000146159  9.61561e-06     -28.8449 
          20      0.93062 -0.000141635  9.72507e-06     -28.8449 
          20       0.9734  -0.00013624  9.86151e-06     -28.8449 
          20      1.01714 -0.000130102  1.00187e-05     -28.8448 
          20      1.06185 -0.000123344  1.01979e-05     -28.8448 
          20      1.10751 -0.000116083  1.03969e-05     -28.8448 
          20      1.15414 -0.000108421  1.06105e-05     -28.8447 
          20      1.20173 -0.000100446  1.08374e-05     -28.8447 
          20      1.25028 -9.22449e-05  1.10686e-05     -28.8446 
          20      1.29979 -8.38793e-05  1.13037e-05     -28.8446 
          20      1.35026 -7.53921e-05  1.15418e-05     -28.8445 
          20       1.4017 -6.68188e-05  1.17795e-05     -28.8445 
          20      1.45409  -5.8187e-05  1.20121e-05     -28.8444 
          20      1.50745  -4.9526e-05  1.22365e-05     -28.8444 
          20      1.56176 -4.08748e-05  1.24536e-05     -28.8443 
          20      1.61705 -3.22849e-05  1.26669e-05     -28.8443 
          20      1.67329 -2.37866e-05  1.28575e-05     -28.8442 
          20      1.73049 -1.54518e-05  1.30363e-05     -28.8441 
          20      1.78865 -7.34865e-06  1.32043e-05     -28.8441 
          20      1.84778  4.99472e-07  1.33538e-05      -28.844 
          20      1.90786  8.01824e-06  1.34814e-05     -28.8439 
          20      1.96891  1.51517e-05  1.35904e-05     -28.8438 
          20      2.03092  2.18852e-05  1.36842e-05     -28.8437 
          20      2.09389   2.8233e-05  1.37727e-05     -28.8436 
          20      2.15782  3.41648e-05  1.38601e-05     -28.8436 
          20      2.22272  3.97014e-05   1.3947e-05     -28.8435 
          20      2.28857  4.48966e-05  1.40399e-05     -28.8434 
          20      2.35539  4.97905e-05   1.4141e-05     -28.8433 
          20      2.42317  5.43651e-05  1.42496e-05     -28.8432 
          20      2.49191  5.85156e-05  1.43643e-05      -28.843 
          20      2.56161  6.23497e-05  1.44702e-05     -28.8429 
          20      2.63226  6.57385e-05  1.45777e-05     -28.8428 
          20      2.70389   6.8698e-05  1.46839e-05     -28.8427 
          20      2.77648  7.12165e-05  1.47811e-05     -28.8426 
          20      2.85002  7.32838e-05  1.48717e-05     -28.8424 
          20      2.92453   7.4886e-05  1.49624e-05     -28.8423 
          20            3  7.60204e-05  1.50476e-05     -28.8422 
          40            0           -0           -0     -28.1753 
          40      0.00048  1.33493e-06 -9.79617e-11     -28.1753 
          40     0.001922  4.61807e-06 -7.33324e-10     -28.1753 
          40     0.004326  8.06528e-06 -2.94214e-09     -28.1753 
          40      0.00769  9.82791e-06 -8.48382e-09     -28.1753 
          40     0.012017  9.04635e-06 -1.98966e-08     -28.1753 
          40     0.017304  6.33197e-06  -4.0519e-08     -28.1753 
          40     0.023553  3.31253e-06 -7.45414e-08     -28.1753 
          40     0.030763  1.39751e-06 -1.26968e-07     -28.1753 
          40     0.038936  5.78645e-07 -2.03586e-07     -28.1753 
          40     0.048069  -5.1848e-07 -3.10758e-07     -28.1753 
          40     0.058163 -2.63531e-06  -4.5528e-07     -28.1753 
          40     0.069219 -3.56218e-06 -6.44053e-07     -28.1753 
          40     0.081236  -2.5459e-06 -8.83633e-07     -28.1753 
          40     0.094215 -1.84588e-06 -1.18084e-06     -28.1753 
          40     0.108155  4.12234e-07 -1.54153e-06     -28.1753 
          40     0.123056  3.53153e-06 -1.97061e-06     -28.1753 
          40     0.138918  7.58349e-06 -2.47186e-06     -28.1753 
          40     0.155744  1.24819e-05 -3.04774e-06     -28.1753 
          40     0.173529  1.80341e-05 -3.69898e-06     -28.1753 
          40     0.192276  2.40318e-05 -4.42507e-06     -28.1753 
          40     0.211984  3.03221e-05 -5.22392e-06     -28.1753 
          40     0.232655  3.67865e-05 -6.09217e-06     -28.1753 
          40     0.254285  4.31322e-05 -7.02479e-06     -28.1753 
          40     0.276877  4.92722e-05 -8.01713e-06     -28.1753 
          40     0.300431   5.5008e-05 -9.06302e-06     -28.1753 
          40     0.324946  6.02133e-05 -1.01558e-05     -28.1753 
          40     0.350424  6.47843e-05  -1.1289e-05     -28.1753 
          40     0.376861  6.86416e-05 -1.24567e-05     -28.1753 
          40      0.40426   7.1736e-05 -1.36533e-05     -28.1753 
          40     0.432621  7.40474e-05 -1.48734e-05     -28.1753 
          40     0.461945  7.55845e-05 -1.61117e-05     -28.1753 
          40     0.492228  7.63822e-05 -1.73627e-05     -28.1753 
          40     0.523472  7.64986e-05 -1.86211e-05     -28.1753 
          40     0.555678  7.60098e-05 -1.98822e-05     -28.1753 
          40     0.588845  7.50074e-05 -2.11423e-05     -28.1753 
          40     0.622976  7.35933e-05 -2.23994e-05     -28.1753 
          40     0.658066  7.18859e-05 -2.36406e-05     -28.1753 
          40     0.694117  7.00026e-05 -2.48619e-05     -28.1753 
          40      0.73113  6.80399e-05 -2.60614e-05     -28.1753 
          40     0.769107  6.60791e-05 -2.72365e-05     -28.1753 
          40     0.808042  6.41853e-05 -2.83841e-05     -28.1753 
          40     0.847939  6.24063e-05 -2.95009e-05     -28.1753 
          40     0.888797  6.07727e-05 -3.05833e-05     -28.1753 
          40      0.93062  5.92992e-05 -3.16277e-05     -28.1753 
          40       0.9734  5.79866e-05 -3.26307e-05     -28.1753 
          40      1.01714  5.68235e-05 -3.35894e-05     -28.1753 
          40      1.06185  5.57898e-05 -3.45014e-05     -28.1753 
          40      1.10751    5.486e-05 -3.53649e-05     -28.1753 
          40      1.15414  5.40064e-05 -3.61789e-05     -28.1753 
          40      1.20173  5.32023e-05 -3.69425e-05     -28.1753 
          40      1.25028  5.24237e-05 -3.76549e-05     -28.1753 
          40      1.29979  5.16494e-05 -3.83142e-05     -28.1753 
          40      1.35026  5.08589e-05 -3.89167e-05     -28.1753 
          40       1.4017  5.00266e-05 -3.94546e-05     -28.1753 
          40      1.45409   4.9111e-05 -3.99139e-05     -28.1752 
          40      1.50745  4.80422e-05 -4.02731e-05     -28.1752 
          40      1.56176  4.69431e-05 -4.06359e-05     -28.1752 
          40      1.61705  4.56021e-05 -4.09224e-05     -28.1752 
          40      1.67329  4.40568e-05 -4.11313e-05     -28.1752 
          40      1.73049  4.23423e-05  -4.1262e-05     -28.1752 
          40      1.78865  4.04915e-05 -4.13149e-05     -28.1752 
          40      1.84778  3.85345e-05  -4.1291e-05     -28.1752 
          40      1.90786  3.64993e-05 -4.11923e-05     -28.1752 
          40      1.96891  3.44107e-05 -4.10214e-05     -28.1752 
          40      2.03092  3.22907e-05 -4.07813e-05     -28.1752 
          40      2.09389   3.0159e-05  -4.0476e-05     -28.1751 
          40      2.15782  2.80332e-05 -4.01098e-05     -28.1751 
          40      2.22272  2.59281e-05 -3.96872e-05     -28.1751 
          40      2.28857  2.38571e-05 -3.92133e-05     -28.1751 
          40      2.35539  2.18317e-05 -3.86932e-05     -28.1751 
          40      2.42317  1.98624e-05 -3.81319e-05     -28.1751 
          40      2.49191  1.79593e-05 -3.75346e-05     -28.1751 
          40      2.56161  1.61317e-05 -3.69061e-05      -28.175 
          40      2.63226   1.4389e-05 -3.62507e-05      -28.175 
          40      2.70389  1.27408e-05 -3.55723e-05      -28.175 
          40      2.77648   1.1198e-05 -3.48743e-05      -28.175 
          40      2.85002  9.77152e-06 -3.41593e-05      -28.175 
          40      2.92453   8.4732e-06 -3.34291e-05     -28.1749 
          40            3  7.31536e-06 -3.26848e-05     -28.1749 
          60            0           -0           -0     -27.5496 
          60      0.00048  1.09019e-06 -1.12289e-10     -27.5496 
          60     0.001922  3.68384e-06 -1.34171e-09     -27.5496 
          60     0.004326  6.11664e-06 -6.35438e-09     -27.5496 
          60      0.00769  6.69032e-06   -1.954e-08     -27.5496 
          60     0.012017  4.67544e-06 -4.69641e-08     -27.5496 
          60     0.017304   7.7075e-07 -9.62021e-08     -27.5496 
          60     0.023553 -3.34294e-06 -1.76236e-07     -27.5496 
          60     0.030763  -6.1916e-06  -2.9717e-07     -27.5496 
          60     0.038936 -7.66644e-06 -4.70018e-07     -27.5496 
          60     0.048069 -8.98067e-06 -7.06193e-07     -27.5496 
          60     0.058163 -1.07603e-05 -1.01727e-06     -27.5496 
          60     0.069219 -1.08261e-05 -1.41446e-06     -27.5496 
          60     0.081236 -8.42182e-06 -1.90802e-06     -27.5496 
          60     0.094215 -5.70545e-06 -2.50744e-06     -27.5496 
          60     0.108155 -8.99707e-07 -3.22044e-06     -27.5496 
          60     0.123056  5.28481e-06 -4.05291e-06     -27.5496 
          60     0.138918  1.28544e-05 -5.00874e-06     -27.5496 
          60     0.155744  2.16502e-05 -6.08987e-06     -27.5496 
          60     0.173529  3.14004e-05 -7.29558e-06     -27.5496 
          60     0.192276  4.18159e-05 -8.62369e-06     -27.5496 
          60     0.211984  5.26609e-05   -1.007e-05     -27.5496 
          60     0.232655  6.37373e-05  -1.1629e-05     -27.5496 
          60     0.254285  7.46863e-05 -1.32937e-05     -27.5496 
          60     0.276877  8.53543e-05 -1.50574e-05     -27.5496 
          60     0.300431  9.54891e-05 -1.69126e-05     -27.5496 
          60     0.324946  0.000104916 -1.88521e-05     -27.5496 
          60     0.350424  0.000113482 -2.08698e-05     -27.5496 
          60     0.376861  0.000121056 -2.29597e-05     -27.5496 
          60      0.40426  0.000127533  -2.5118e-05     -27.5496 
          60     0.432621  0.000132828 -2.73415e-05     -27.5496 
          60     0.461945  0.000136874 -2.96284e-05     -27.5496 
          60     0.492228  0.000139616 -3.19775e-05     -27.5496 
          60     0.523472  0.000141012 -3.43885e-05     -27.5496 
          60     0.555678   0.00014103 -3.68617e-05     -27.5496 
          60     0.588845  0.000139657 -3.93967e-05     -27.5496 
          60     0.622976  0.000136944 -4.19926e-05     -27.5496 
          60     0.658066  0.000132888 -4.46458e-05     -27.5496 
          60     0.694117  0.000127554 -4.73527e-05     -27.5496 
          60      0.73113  0.000121127 -5.01056e-05     -27.5496 
          60     0.769107  0.000113831 -5.28936e-05     -27.5496 
          60     0.808042  0.000105918 -5.57026e-05     -27.5496 
          60     0.847939  9.76549e-05  -5.8517e-05     -27.5496 
          60     0.888797  8.93157e-05 -6.13194e-05     -27.5496 
          60      0.93062  8.11649e-05 -6.40914e-05     -27.5496 
          60       0.9734  7.34464e-05  -6.6814e-05     -27.5496 
          60      1.01714  6.63633e-05 -6.94701e-05     -27.5496 
          60      1.06185  6.00682e-05 -7.20432e-05     -27.5496 
          60      1.10751  5.46484e-05 -7.45201e-05     -27.5496 
          60      1.15414  5.01187e-05 -7.68904e-05     -27.5495 
          60      1.20173  4.64191e-05 -7.91466e-05     -27.5495 
          60      1.25028  4.34187e-05 -8.12849e-05     -27.5495 
          60      1.29979  4.09333e-05 -8.33034e-05     -27.5495 