Variables = x, y, u, v, p

Zone, I=10400, F=POINT
         -50            0            0            0      32.3261 
         -50     0.000942  1.47548e-05  2.79682e-09      32.3261 
         -50     0.003768  4.39369e-05  9.16144e-09      32.3261 
         -50     0.008478  5.88212e-05  1.45495e-08      32.3261 
         -50     0.015075  4.92516e-05  1.50194e-08      32.3261 
         -50     0.023553   3.4966e-05  8.75433e-09      32.3261 
         -50     0.033916  3.73981e-05 -5.89165e-09      32.3261 
         -50     0.046163  4.45362e-05 -3.35783e-08      32.3261 
         -50       0.0603  3.61532e-05 -8.09438e-08      32.3261 
         -50     0.076315  4.51043e-05 -1.51818e-07      32.3261 
         -50     0.094215  4.03339e-05 -2.54501e-07      32.3261 
         -50     0.113999  4.22084e-05 -3.91635e-07      32.3261 
         -50     0.135675   4.3252e-05  -5.6802e-07      32.3261 
         -50     0.159228  4.60893e-05 -7.82746e-07      32.3261 
         -50     0.184664  4.91904e-05 -1.02997e-06      32.3261 
         -50     0.211985  5.19681e-05 -1.30033e-06      32.3261 
         -50     0.241201  5.60275e-05 -1.58225e-06      32.3261 
         -50      0.27229   5.9286e-05 -1.87187e-06      32.3261 
         -50     0.305263  6.29398e-05 -2.20413e-06      32.3261 
         -50     0.340135  6.64342e-05 -2.59989e-06      32.3261 
         -50     0.376877  6.97669e-05 -3.07533e-06       32.326 
         -50     0.415503  7.28432e-05 -3.62745e-06       32.326 
         -50     0.456013  7.55358e-05 -4.22147e-06       32.326 
         -50     0.498424  7.77613e-05 -4.80086e-06       32.326 
         -50     0.542703  7.95133e-05 -5.34306e-06       32.326 
         -50     0.588866   8.0791e-05 -6.00266e-06      32.3259 
         -50     0.636912  8.14922e-05 -6.89577e-06      32.3259 
         -50     0.686864  8.16938e-05 -7.55794e-06      32.3259 
         -50     0.738679  8.14058e-05  -8.1151e-06      32.3258 
         -50     0.792379  8.06625e-05 -8.62618e-06      32.3258 
         -50     0.847962  7.94933e-05 -9.13613e-06      32.3257 
         -50     0.905453  7.79226e-05 -9.67418e-06      32.3257 
         -50     0.964806  7.59733e-05 -1.02518e-05      32.3256 
         -50      1.02604  7.36666e-05 -1.08641e-05      32.3256 
         -50      1.08919  7.10293e-05 -1.14916e-05      32.3255 
         -50      1.15419  6.81065e-05 -1.21023e-05      32.3254 
         -50      1.22108  6.49678e-05 -1.26591e-05      32.3253 
         -50      1.28985  6.17281e-05 -1.31253e-05      32.3252 
         -50      1.36054  5.85664e-05  -1.3473e-05      32.3251 
         -50      1.43308  5.57572e-05  -1.3691e-05       32.325 
         -50      1.50751   5.3685e-05 -1.38131e-05      32.3249 
         -50      1.58382   5.1605e-05 -1.45997e-05      32.3248 
         -50      1.66204  4.98482e-05 -1.45608e-05      32.3247 
         -50      1.74212  4.84836e-05 -1.40755e-05      32.3245 
         -50      1.82409  4.74996e-05 -1.34608e-05      32.3244 
         -50      1.90793  4.68169e-05 -1.29667e-05      32.3242 
         -50       1.9937   4.6302e-05 -1.27725e-05       32.324 
         -50      2.08131  4.57869e-05 -1.29867e-05      32.3239 
         -50      2.17081  4.50897e-05  -1.3649e-05      32.3237 
         -50      2.26223  4.40402e-05 -1.47366e-05      32.3234 
         -50       2.3555  4.25071e-05 -1.61702e-05      32.3232 
         -50      2.45065  4.04212e-05 -1.78282e-05       32.323 
         -50      2.54769  3.77993e-05 -1.95584e-05      32.3227 
         -50      2.64665  3.47592e-05 -2.11945e-05      32.3225 
         -50      2.74746   3.1532e-05 -2.25705e-05      32.3222 
         -50      2.85014  2.84474e-05 -2.35417e-05      32.3219 
         -50      2.95472  2.59129e-05 -2.39986e-05      32.3216 
         -50      3.06122  2.43609e-05 -2.38811e-05      32.3212 
         -50      3.16956  2.41665e-05 -2.31891e-05      32.3209 
         -50      3.27979  2.55186e-05 -2.19851e-05      32.3205 
         -50       3.3919  2.82469e-05 -2.03886e-05      32.3201 
         -50      3.50594  3.15844e-05 -1.85576e-05      32.3197 
         -50      3.62181   3.3848e-05  -1.6657e-05      32.3193 
         -50      3.73958   3.2046e-05 -1.48011e-05      32.3188 
         -50      3.85927  3.34625e-05 -1.56772e-05      32.3184 
         -50       3.9808   3.4676e-05 -1.51561e-05      32.3179 
         -50      4.10422    3.561e-05 -1.38685e-05      32.3174 
         -50      4.22952  3.61756e-05 -1.26783e-05      32.3168 
         -50      4.35675  3.66194e-05 -1.16939e-05      32.3163 
         -50      4.48582  3.68926e-05 -1.10129e-05      32.3157 
         -50      4.61677  3.68465e-05 -1.06729e-05      32.3151 
         -50      4.74961  3.63948e-05 -1.06244e-05      32.3144 
         -50      4.88438   3.5624e-05 -1.07278e-05      32.3138 
         -50      5.02099  3.48313e-05  -1.0785e-05      32.3131 
         -50      5.15948  3.44559e-05 -1.06158e-05      32.3123 
         -50      5.29985  3.48812e-05 -1.01909e-05      32.3116 
         -50      5.44217  3.60668e-05 -9.83349e-06      32.3108 
         -50      5.58631  3.69689e-05 -1.05072e-05        32.31 
         -50      5.73233  3.62133e-05 -1.02305e-05      32.3091 
         -50      5.88024  3.66046e-05 -1.04328e-05      32.3083 
         -50       6.0301  3.75329e-05  -1.0349e-05      32.3074 
         -50      6.18178  3.82976e-05 -9.23867e-06      32.3064 
         -50      6.33534   3.8535e-05 -8.01168e-06      32.3054 
         -50      6.49085  3.81784e-05 -7.48825e-06      32.3044 
         -50      6.64818  3.75241e-05 -6.68184e-06      32.3034 
         -50      6.80739  3.82368e-05 -5.21214e-06      32.3023 
         -50      6.96849  3.94728e-05 -5.45038e-06      32.3011 
         -50      7.13154  3.98471e-05 -5.21925e-06         32.3 
         -50      7.29641  3.96356e-05  -4.9889e-06      32.2988 
         -50      7.46316  3.91184e-05 -4.89394e-06      32.2975 
         -50       7.6318  3.85983e-05  -4.8656e-06      32.2962 
         -50      7.80239  3.84284e-05 -4.76134e-06      32.2949 
         -50      7.97479  3.90503e-05 -4.48801e-06      32.2935 
         -50      8.14908  3.91722e-05 -4.44631e-06      32.2921 
         -50      8.32526  3.87897e-05 -4.16995e-06      32.2906 
         -50      8.50338  3.90157e-05 -3.64472e-06      32.2891 
         -50      8.68333  3.94813e-05 -3.19414e-06      32.2876 
         -50      8.86515  4.01125e-05  -2.8987e-06       32.286 
         -50      9.04894  4.08881e-05 -2.74844e-06      32.2843 
         -50      9.23453  4.14292e-05 -2.88736e-06      32.2826 
         -50      9.42201  4.13654e-05  -3.0667e-06      32.2809 
         -50      9.61137  4.12353e-05 -2.65524e-06      32.2791 
         -50      9.80269  4.06738e-05 -2.61937e-06      32.2773 
         -50      9.99583  4.02189e-05 -2.73075e-06      32.2754 
         -50      10.1908  4.00949e-05 -2.79509e-06      32.2734 
         -50      10.3877  4.03045e-05  -2.6745e-06      32.2714 
         -50      10.5866  4.07166e-05 -2.30253e-06      32.2693 
         -50      10.7873  4.11443e-05 -1.69154e-06      32.2672 
         -50      10.9898  4.14154e-05 -9.27747e-07       32.265 
         -50      11.1943  4.14242e-05 -1.54837e-07      32.2628 
         -50      11.4007  4.11663e-05  4.58475e-07      32.2605 
         -50      11.6089  4.07492e-05  7.67474e-07      32.2582 
         -50       11.819  4.03721e-05  7.23653e-07      32.2558 
         -50       12.031  4.02723e-05  4.67873e-07      32.2533 
         -50      12.2449  4.06302e-05   4.5272e-07      32.2508 
         -50      12.4606  4.14248e-05   1.5938e-06      32.2482 
         -50      12.6782   4.1023e-05  3.50561e-06      32.2456 
         -50      12.8978  4.02436e-05  4.69292e-06      32.2429 
         -50      13.1192  4.07775e-05  4.45564e-06      32.2401 
         -50      13.3425  4.10077e-05  4.54397e-06      32.2373 
         -50      13.5677  4.11093e-05  5.06169e-06      32.2344 
         -50      13.7948  4.10989e-05  5.80218e-06      32.2314 
         -50      14.0237  4.10202e-05  6.62132e-06      32.2284 
         -50      14.2546  4.09264e-05  7.42214e-06      32.2253 
         -50      14.4873  4.08636e-05  8.13888e-06      32.2221 
         -50      14.7219   4.0859e-05  8.72588e-06      32.2189 
         -50      14.9584  4.09121e-05  9.14889e-06      32.2155 
         -50      15.1968  4.09915e-05  9.38359e-06      32.2122 
         -50      15.4371  4.10375e-05  9.41721e-06      32.2087 
         -50      15.6792  4.09711e-05  9.25824e-06      32.2052 
         -50      15.9232  4.07124e-05  8.95366e-06      32.2016 
         -50      16.1691  4.02067e-05  8.61494e-06       32.198 
         -50       16.417  3.94617e-05  8.45437e-06      32.1942 
         -50      16.6666  3.85981e-05  8.83319e-06      32.1904 
         -50      16.9182  3.89545e-05  8.38382e-06      32.1866 
         -50      17.1716  3.96799e-05  7.59792e-06      32.1826 
         -50       17.427  4.02739e-05  7.23211e-06      32.1786 
         -50      17.6842  4.05533e-05  7.47168e-06      32.1745 
         -50      17.9433  4.04901e-05  8.19336e-06      32.1703 
         -50      18.2042  4.01592e-05  9.11057e-06      32.1661 
         -50      18.4672   3.9693e-05  9.90273e-06      32.1617 
         -50      18.7319  3.92454e-05  1.03242e-05      32.1573 
         -50      18.9985  3.89629e-05  1.02928e-05      32.1529 
         -50       19.267    3.897e-05  9.94672e-06      32.1483 
         -50      19.5375  3.93669e-05  9.66927e-06      32.1437 
         -50      19.8098  4.02433e-05  1.00752e-05       32.139 
         -50       20.084  4.17109e-05  1.19503e-05      32.1342 
         -50      20.3601  4.24172e-05  1.43604e-05      32.1293 
         -50       20.638  4.02202e-05   1.3009e-05      32.1244 
         -50      20.9178  3.89505e-05  1.09607e-05      32.1194 
         -50      21.1995  3.91242e-05  8.35793e-06      32.1143 
         -50      21.4832  3.65635e-05  1.17271e-05      32.1091 
         -50      21.7687  3.85218e-05   1.2951e-05      32.1038 
         -50       22.056  4.07832e-05   1.2121e-05      32.0985 
         -50      22.3452  3.97668e-05  1.19538e-05      32.0931 
         -50      22.6365  3.85831e-05  1.23849e-05      32.0876 
         -50      22.9295  3.76592e-05   1.2852e-05       32.082 
         -50      23.2243  3.72282e-05  1.30239e-05      32.0764 
         -50      23.5211  3.73001e-05  1.28337e-05      32.0706 
         -50      23.8199  3.76761e-05  1.24601e-05      32.0648 
         -50      24.1204  3.80143e-05  1.22501e-05      32.0589 
         -50      24.4228  3.79568e-05  1.25727e-05       32.053 
         -50      24.7272  3.73206e-05  1.35995e-05      32.0469 
         -50      25.0334  3.63654e-05  1.49981e-05      32.0408 
         -50      25.3415  3.61399e-05  1.55363e-05      32.0346 
         -50      25.6514   3.6195e-05  1.60443e-05      32.0283 
         -50      25.9634  3.55581e-05  1.55977e-05       32.022 
         -50      26.2771  3.51995e-05  1.46802e-05      32.0155 
         -50      26.5927  3.52883e-05  1.43263e-05       32.009 
         -50      26.9102  3.58086e-05  1.45653e-05      32.0024 
         -50      27.2297  3.64693e-05  1.48528e-05      31.9957 
         -50       27.551  3.64352e-05  1.49805e-05       31.989 
         -50      27.8741  3.58122e-05  1.46384e-05      31.9822 
         -50      28.1991  3.54322e-05  1.43067e-05      31.9753 
         -50      28.5262  3.51823e-05  1.40149e-05      31.9683 
         -50       28.855  3.49826e-05  1.37839e-05      31.9613 
         -50      29.1856  3.47806e-05  1.36264e-05      31.9542 
         -50      29.5183   3.4548e-05  1.35485e-05       31.947 
         -50      29.8528  3.42765e-05  1.35499e-05      31.9397 
         -50      30.1891  3.39724e-05  1.36252e-05      31.9324 
         -50      30.5273  3.36535e-05  1.37646e-05       31.925 
         -50      30.8676  3.33436e-05  1.39551e-05      31.9175 
         -50      31.2096  3.30696e-05   1.4181e-05      31.9099 
         -50      31.5534  3.28563e-05  1.44256e-05      31.9023 
         -50      31.8992   3.2723e-05  1.46717e-05      31.8946 
         -50      32.2469  3.26797e-05  1.49031e-05      31.8868 
         -50      32.5965  3.27237e-05  1.51049e-05       31.879 
         -50      32.9479  3.28362e-05  1.52655e-05      31.8711 
         -50      33.3012    3.298e-05  1.53768e-05      31.8631 
         -50      33.6565  3.30967e-05  1.54361e-05      31.8551 
         -50      34.0135  3.31052e-05  1.54462e-05       31.847 
         -50      34.3725     3.29e-05  1.54171e-05      31.8389 
         -50      34.7334  3.23506e-05  1.53667e-05      31.8306 
         -50      35.0962  3.14794e-05  1.54186e-05      31.8223 
         -50      35.4608  3.03849e-05  1.46119e-05       31.814 
         -50      35.8272  2.98735e-05  1.38722e-05      31.8056 
         -50      36.1957  2.97485e-05  1.36795e-05      31.7971 
         -50       36.566  2.98491e-05  1.37742e-05      31.7886 
         -50      36.9381  3.01535e-05   1.4397e-05        31.78 
         -50      37.3121  3.04435e-05   1.5747e-05      31.7713 
         -50      37.6882  3.06334e-05  1.67831e-05      31.7626 
         -50       38.066  3.06645e-05  1.74557e-05      31.7538 
         -50      38.4456   3.0526e-05  1.77734e-05       31.745 
         -50      38.8272   3.0241e-05  1.77849e-05      31.7361 
         -50      39.2108  2.98531e-05  1.75639e-05      31.7272 
         -50      39.5961  2.94164e-05  1.71962e-05      31.7182 
         -50      39.9833   2.8984e-05  1.67669e-05      31.7092 
         -50      40.3724  2.86007e-05  1.63511e-05      31.7001 
         -50      40.7635  2.82961e-05  1.60065e-05       31.691 
         -50      41.1564  2.80812e-05  1.57695e-05      31.6818 
         -50      41.5511  2.79459e-05   1.5652e-05      31.6726 
         -50      41.9479  2.78606e-05  1.56443e-05      31.6633 
         -50      42.3464  2.77796e-05  1.57198e-05       31.654 
         -50      42.7468  2.76488e-05  1.58447e-05      31.6446 
         -50      43.1491  2.74163e-05  1.59911e-05      31.6352 
         -50      43.5534  2.70467e-05   1.6156e-05      31.6258 
         -50      43.9595  2.65408e-05  1.63845e-05      31.6163 
         -50      44.3674  2.63408e-05  1.67262e-05      31.6068 
         -50      44.7772  2.68531e-05  1.70027e-05      31.5972 
         -50      45.1891  2.70257e-05   1.7314e-05      31.5876 
         -50      45.6027  2.69205e-05  1.76424e-05       31.578 
         -50      46.0181  2.65997e-05  1.79245e-05      31.5683 
         -50      46.4355  2.61405e-05  1.80434e-05      31.5586 
         -50      46.8549  2.56532e-05  1.78216e-05      31.5489 
         -50       47.276  2.53019e-05  1.70111e-05      31.5391 
         -50       47.699  2.58958e-05  1.69575e-05      31.5293 
         -50      48.1241  2.60099e-05  1.68973e-05      31.5195 
         -50      48.5508  2.57944e-05   1.6808e-05      31.5096 
         -50      48.9795  2.53995e-05  1.67007e-05      31.4997 
         -50        49.41  2.49399e-05  1.65811e-05      31.4898 
         -50      49.8426  2.44973e-05  1.64516e-05      31.4799 
         -50      50.2769  2.41251e-05   1.6313e-05      31.4699 
         -50      50.7131  2.38502e-05  1.61658e-05      31.4599 
         -50      51.1512  2.36781e-05  1.60118e-05      31.4499 
         -50      51.5914  2.35971e-05  1.58552e-05      31.4399 
         -50      52.0332  2.35829e-05  1.57035e-05      31.4298 
         -50      52.4769  2.36039e-05   1.5568e-05      31.4198 
         -50      52.9225  2.36265e-05  1.54642e-05      31.4097 
         -50      53.3702  2.36214e-05  1.54121e-05      31.3996 
         -50      53.8196  2.35701e-05  1.54353e-05      31.3895 
         -50      54.2709  2.34715e-05  1.55606e-05      31.3794 
         -50      54.7242  2.33497e-05   1.5817e-05      31.3692 
         -50      55.1792  2.24425e-05  1.53988e-05      31.3591 
         -50      55.6362  2.17626e-05  1.51197e-05      31.3489 
         -50       56.095  2.14249e-05  1.51158e-05      31.3388 
         -50      56.5558  2.12848e-05  1.52702e-05      31.3286 
         -50      57.0184  2.12425e-05  1.54949e-05      31.3184 
         -50      57.4829  2.12346e-05  1.57269e-05      31.3082 
         -50      57.9492  2.12266e-05  1.59236e-05       31.298 
         -50      58.4176  2.12053e-05  1.60592e-05      31.2878 
         -50      58.8877  2.11717e-05  1.61208e-05      31.2776 
         -50      59.3597  2.11343e-05  1.61058e-05      31.2675 
         -50      59.8336  2.11026e-05  1.60197e-05      31.2573 
         -50      60.3096  2.10812e-05  1.58735e-05      31.2471 
         -50      60.7872  2.10645e-05  1.56831e-05      31.2369 
         -50      61.2667  2.10322e-05  1.54686e-05      31.2267 
         -50      61.7484  2.09446e-05  1.52541e-05      31.2165 
         -50      62.2317  2.07405e-05  1.50696e-05      31.2063 
         -50      62.7168  2.03335e-05   1.4952e-05      31.1962 
         -50      63.2039  1.96112e-05  1.49485e-05       31.186 
         -50      63.6931   1.8434e-05  1.51206e-05      31.1759 
         -50      64.1839  1.88099e-05   1.4698e-05      31.1657 
         -50      64.6766   1.9381e-05  1.41737e-05      31.1556 
         -50      65.1712  1.96691e-05  1.38176e-05      31.1455 
         -50      65.6679  1.97469e-05  1.36218e-05      31.1354 
         -50      66.1663  1.96013e-05  1.35259e-05      31.1253 
         -50      66.6665  1.91582e-05  1.35427e-05      31.1152 
         -50      67.1687  1.87445e-05  1.39247e-05      31.1052 
         -50      67.6729  1.82505e-05  1.38998e-05      31.0951 
         -50      68.1788   1.7802e-05  1.36376e-05      31.0851 
         -50      68.6866  1.74928e-05  1.32959e-05      31.0751 
         -50      69.1963  1.73854e-05  1.30196e-05      31.0651 
         -50      69.7081  1.75113e-05  1.29406e-05      31.0552 
         -50      70.2215  1.78872e-05  1.36346e-05      31.0452 
         -50      70.7368  1.80797e-05  1.40034e-05      31.0353 
         -50      71.2543  1.80946e-05  1.40559e-05      31.0255 
         -50      71.7734    1.797e-05  1.38864e-05      31.0156 
         -50      72.2943  1.77501e-05  1.35862e-05      31.0058 
         -50      72.8172  1.74793e-05  1.32354e-05       30.996 
         -50      73.3422  1.71982e-05  1.28978e-05      30.9862 
         -50      73.8688  1.69405e-05  1.26173e-05      30.9764 
         -50      74.3973  1.67294e-05  1.24154e-05      30.9667 
         -50      74.9277  1.65768e-05  1.22923e-05      30.9571 
         -50      75.4602  1.64828e-05  1.22298e-05      30.9474 
         -50      75.9944  1.64364e-05  1.21966e-05      30.9378 
         -50      76.5305  1.64173e-05  1.21572e-05      30.9282 
         -50      77.0684  1.63999e-05  1.20824e-05      30.9187 
         -50      77.6084  1.63576e-05  1.19645e-05      30.9092 
         -50      78.1502  1.62698e-05   1.1835e-05      30.8997 
         -50      78.6937    1.613e-05  1.17859e-05      30.8903 
         -50      79.2394  1.59698e-05  1.19824e-05      30.8809 
         -50      79.7868  1.61593e-05  1.19422e-05      30.8715 
         -50      80.3361  1.61677e-05  1.18665e-05      30.8622 
         -50      80.8872  1.60565e-05  1.17801e-05      30.8529 
         -50      81.4404  1.58743e-05  1.16985e-05      30.8437 
         -50      81.9953  1.56588e-05  1.16297e-05      30.8345 
         -50      82.5521  1.54378e-05  1.15754e-05      30.8254 
         -50      83.1108  1.52311e-05  1.15323e-05      30.8163 
         -50      83.6715  1.50513e-05  1.14931e-05      30.8072 
         -50       84.234   1.4905e-05  1.14476e-05      30.7982 
         -50      84.7983  1.47932e-05  1.13831e-05      30.7893 
         -50      85.3645  1.47122e-05  1.12853e-05      30.7804 
         -50      85.9328  1.46534e-05  1.11381e-05      30.7716 
         -50      86.5028  1.46037e-05  1.09243e-05      30.7628 
         -50      87.0747  1.45448e-05  1.06248e-05       30.754 
         -50      87.6486  1.44526e-05  1.02184e-05      30.7453 
         -50      88.2243  1.43122e-05  1.01285e-05      30.7367 
         -50      88.8018  1.42255e-05  1.02528e-05      30.7281 
         -50      89.3812  1.41796e-05  1.02826e-05      30.7196 
         -50      89.9627  1.41406e-05  1.02416e-05      30.7111 
         -50      90.5458  1.40824e-05  1.01506e-05      30.7027 
         -50      91.1309  1.39882e-05  1.00276e-05      30.6943 
         -50      91.7178  1.38513e-05   9.8877e-06       30.686 
         -50      92.3069  1.36767e-05  9.74333e-06      30.6777 
         -50      92.8976  1.34815e-05   9.6047e-06      30.6696 
         -50      93.4901  1.32956e-05   9.4799e-06      30.6614 
         -50      94.0846  1.31621e-05  9.37571e-06      30.6534 
         -50      94.6812  1.31382e-05  9.29822e-06      30.6454 
         -50      95.2794  1.32947e-05  9.25376e-06      30.6374 
         -50      95.8796  1.32444e-05  9.18057e-06      30.6296 
         -50      96.4818  1.31099e-05  9.12545e-06      30.6218 
         -50      97.0857  1.30159e-05  9.09517e-06       30.614 
         -50      97.6915  1.29494e-05   9.0721e-06      30.6063 
         -50      98.2991  1.29012e-05  9.04211e-06      30.5987 
         -50      98.9089  1.28652e-05  8.99463e-06      30.5912 
         -50      99.5203  1.28372e-05  8.92273e-06      30.5837 
         -50      100.134  1.28142e-05  8.82296e-06      30.5763 
         -50      100.749  1.27935e-05  8.69524e-06       30.569 
         -50      101.366  1.27723e-05  8.54251e-06      30.5617 
         -50      101.985  1.27476e-05  8.37064e-06      30.5545 
         -50      102.606  1.27154e-05  8.18754e-06      30.5474 
         -50      103.229  1.26715e-05  8.00283e-06      30.5404 
         -50      103.854  1.26115e-05    7.827e-06      30.5334 
         -50       104.48  1.25313e-05  7.67081e-06      30.5265 
         -50      105.108  1.24281e-05  7.54387e-06      30.5197 
         -50      105.739   1.2301e-05  7.45384e-06       30.513 
         -50      106.371   1.2153e-05  7.40499e-06      30.5063 
         -50      107.005  1.19922e-05  7.39688e-06      30.4997 
         -50      107.641  1.18341e-05  7.42259e-06      30.4932 
         -50      108.279  1.17034e-05  7.46705e-06      30.4868 
         -50      108.919  1.16372e-05  7.50497e-06      30.4804 
         -50       109.56  1.16731e-05  7.45855e-06      30.4742 
         -50      110.204  1.16743e-05  7.14235e-06       30.468 
         -50      110.849  1.16778e-05  6.85742e-06      30.4619 
         -50      111.497  1.17029e-05  6.61138e-06      30.4559 
         -50      112.146  1.17597e-05  6.41109e-06      30.4499 
         -50      112.797  1.18475e-05  6.26358e-06      30.4441 
         -50       113.45  1.19533e-05  6.17648e-06      30.4383 
         -50      114.105  1.20497e-05  6.15874e-06      30.4326 
         -50      114.761  1.20017e-05  6.08132e-06       30.427 
         -50       115.42  1.17801e-05  5.88182e-06      30.4215 
         -50      116.081  1.15611e-05  5.72078e-06      30.4161 
         -50      116.743   1.1378e-05  5.58143e-06      30.4108 
         -50      117.407  1.12468e-05  5.45229e-06      30.4055 
         -50      118.073  1.11702e-05  5.32634e-06      30.4004 
         -50      118.741  1.11415e-05  5.20025e-06      30.3953 
         -50      119.411   1.1148e-05  5.07308e-06      30.3904 
         -50      120.083   1.1174e-05  4.94574e-06      30.3855 
         -50      120.757  1.12034e-05   4.8201e-06      30.3807 
         -50      121.432  1.12219e-05  4.69854e-06      30.3761 
         -50       122.11  1.12185e-05  4.58313e-06      30.3715 
         -50      122.789  1.11872e-05  4.47535e-06       30.367 
         -50       123.47   1.1127e-05  4.37571e-06      30.3626 
         -50      124.153  1.10425e-05  4.28363e-06      30.3584 
         -50      124.838   1.0943e-05  4.19713e-06      30.3542 
         -50      125.525  1.08417e-05  4.11306e-06      30.3501 
         -50      126.214  1.07536e-05   4.0272e-06      30.3461 
         -50      126.905   1.0693e-05  3.93468e-06      30.3422 
         -50      127.597  1.06704e-05  3.83034e-06      30.3384 
         -50      128.292   1.0688e-05  3.70941e-06      30.3347 
         -50      128.988  1.07352e-05  3.56855e-06      30.3311 
         -50      129.686  1.07825e-05  3.40655e-06      30.3277 
         -50      130.386  1.07751e-05  3.22574e-06      30.3244 
         -50      131.088  1.06248e-05  3.03329e-06      30.3212 
         -50      131.792   1.0202e-05   2.8431e-06      30.3181 
         -50      132.497  1.08805e-05  2.92319e-06      30.3151 
         -50      133.205  1.16336e-05  2.97622e-06      30.3121 
         -50      133.915  1.20295e-05  2.94243e-06      30.3092 
         -50      134.626  1.21811e-05  2.88132e-06      30.3064 
         -50      135.339  1.21832e-05  2.85422e-06      30.3037 
         -50      136.054  1.14687e-05  2.75382e-06      30.3011 
         -50      136.771  1.05194e-05  2.56424e-06      30.2986 
         -50       137.49  1.00795e-05  2.39321e-06      30.2962 
         -50      138.211   1.0131e-05  2.23644e-06       30.294 
         -50      138.934  1.05183e-05  2.08863e-06       30.292 
         -50      139.658  1.10251e-05  1.94484e-06        30.29 
         -50      140.385  1.14396e-05  1.80105e-06      30.2883 
         -50      141.113  1.16022e-05  1.65505e-06      30.2866 
         -50      141.843  1.14378e-05  1.50666e-06      30.2851 
         -50      142.575  1.09717e-05  1.35799e-06      30.2836 
         -50      143.309  1.03262e-05  1.21273e-06      30.2823 
         -50      144.045  9.69888e-06  1.07572e-06      30.2811 
         -50      144.783  9.31999e-06  9.51817e-07      30.2801 
         -50      145.523  9.39013e-06  8.44575e-07      30.2791 
         -50      146.264  9.99335e-06  7.54127e-07      30.2783 
         -50      147.007   1.0989e-05  6.75061e-07      30.2776 
         -50      147.753  1.18785e-05   5.9357e-07       30.277 
         -50        148.5   1.1644e-05  4.84345e-07      30.2765 
         -50      149.249  8.56555e-06  3.06645e-07      30.2762 
         -50          150  2.28617e-19  7.28146e-21      30.2761 
         -25            0  5.83196e-20  5.42216e-24      31.0354 
         -25     0.000942  1.07935e-05  1.02566e-09      31.0354 
         -25     0.003768  3.21198e-05  3.25222e-09      31.0354 
         -25     0.008478  4.29197e-05  4.71117e-09      31.0354 
         -25     0.015075  3.57296e-05  3.51461e-09      31.0354 
         -25     0.023553  2.49777e-05 -1.51102e-09      31.0354 
         -25     0.033916  2.63244e-05 -1.14724e-08      31.0354 
         -25     0.046163   3.0921e-05 -2.85076e-08      31.0354 
         -25       0.0603  2.39019e-05 -5.53426e-08      31.0354 
         -25     0.076315  2.92987e-05 -9.34208e-08      31.0354 
         -25     0.094215  2.43149e-05 -1.45575e-07      31.0354 
         -25     0.113999  2.38514e-05 -2.12817e-07      31.0354 
         -25     0.135675  2.24192e-05 -2.96664e-07      31.0354 
         -25     0.159228  2.19514e-05 -3.97951e-07      31.0354 
         -25     0.184664  2.13511e-05 -5.17397e-07      31.0354 
         -25     0.211985  2.02289e-05 -6.55696e-07      31.0354 
         -25     0.241201  1.98138e-05  -8.1379e-07      31.0354 
         -25      0.27229  1.86383e-05 -9.94172e-07      31.0354 
         -25     0.305263  1.76422e-05 -1.19337e-06      31.0354 
         -25     0.340135  1.64784e-05 -1.40889e-06      31.0354 
         -25     0.376877  1.52168e-05 -1.63328e-06      31.0354 
         -25     0.415503  1.38599e-05 -1.85832e-06      31.0354 
         -25     0.456013  1.23884e-05 -2.08159e-06      31.0354 
         -25     0.498424  1.08093e-05 -2.31216e-06      31.0354 
         -25     0.542703  9.18325e-06 -2.56976e-06      31.0354 
         -25     0.588866  7.57034e-06 -2.87082e-06      31.0354 
         -25     0.636912  5.98604e-06 -3.18129e-06      31.0353 
         -25     0.686864  4.53425e-06 -3.48596e-06      31.0353 
         -25     0.738679  3.28013e-06 -3.79099e-06      31.0353 
         -25     0.792379  2.30838e-06 -4.09278e-06      31.0353 
         -25     0.847962  1.68176e-06 -4.38884e-06      31.0353 
         -25     0.905453  1.43764e-06  -4.6775e-06      31.0353 
         -25     0.964806  1.58737e-06  -4.9567e-06      31.0352 
         -25      1.02604  2.11683e-06   -5.224e-06      31.0352 
         -25      1.08919   2.9907e-06 -5.47568e-06      31.0352 
         -25      1.15419  4.15623e-06 -5.70644e-06      31.0352 
         -25      1.22108  5.55299e-06 -5.91086e-06      31.0351 
         -25      1.28985  7.12068e-06 -6.08535e-06      31.0351 
         -25      1.36054  8.81038e-06 -6.23274e-06      31.0351 
         -25      1.43308  1.05917e-05 -6.36954e-06       31.035 
         -25      1.50751  1.24617e-05 -6.53704e-06       31.035 
         -25      1.58382  1.41517e-05 -6.65285e-06      31.0349 
         -25      1.66204  1.57524e-05 -6.72001e-06      31.0349 
         -25      1.74212  1.71083e-05 -6.76165e-06      31.0348 
         -25      1.82409  1.81338e-05 -6.78834e-06      31.0348 
         -25      1.90793  1.88066e-05 -6.79916e-06      31.0347 
         -25       1.9937  1.91618e-05 -6.78366e-06      31.0347 
         -25      2.08131  1.92809e-05 -6.72438e-06      31.0346 
         -25      2.17081  1.92791e-05 -6.60012e-06      31.0345 
         -25      2.26223  1.92885e-05 -6.38943e-06      31.0344 
         -25       2.3555  1.94407e-05 -6.07509e-06      31.0343 
         -25      2.45065  1.98471e-05 -5.64764e-06      31.0343 
         -25      2.54769  2.05809e-05 -5.10954e-06      31.0342 