Variables = x, y, u, v, p

Zone, I=416, F=POINT
         -50            0            0            0      97.8698 
         -50     0.013333  0.000281072   8.4156e-08      97.8698 
         -50     0.053333  0.000264159  2.57296e-07      97.8698 
         -50         0.12  0.000268204  6.08629e-07      97.8698 
         -50     0.213332  0.000274485  1.23919e-06      97.8697 
         -50     0.333332   0.00027666  2.36212e-06      97.8696 
         -50         0.48  0.000276478  4.80252e-06      97.8694 
         -50     0.653331   0.00027626  6.28241e-06      97.8691 
         -50     0.853332  0.000272189  8.75149e-06      97.8686 
         -50         1.08  0.000264325   1.0888e-05      97.8679 
         -50      1.33333  0.000255499  1.24962e-05       97.867 
         -50      1.61333   0.00024616  1.44963e-05      97.8657 
         -50         1.92  0.000236193  1.44704e-05       97.864 
         -50      2.25333  0.000233918  1.74246e-05      97.8618 
         -50      2.61333  0.000238086    2.299e-05       97.859 
         -50            3  0.000237892  2.46607e-05      97.8556 
         -25            0  2.33513e-19  1.53627e-23      93.9464 
         -25     0.013333  0.000206211  2.20349e-08      93.9464 
         -25     0.053333  0.000195479 -9.93455e-09      93.9464 
         -25         0.12  0.000202955 -1.50879e-07      93.9464 
         -25     0.213332  0.000213328 -2.77636e-07      93.9464 
         -25     0.333332  0.000219424 -2.16562e-07      93.9464 
         -25         0.48  0.000220926 -5.55737e-08      93.9463 
         -25     0.653331  0.000217859  1.65239e-07      93.9462 
         -25     0.853332  0.000209025  4.85287e-08       93.946 
         -25         1.08  0.000198017 -2.64012e-07      93.9457 
         -25      1.33333   0.00018931 -3.64885e-07      93.9454 
         -25      1.61333  0.000182926 -3.63758e-07      93.9449 
         -25         1.92  0.000173996 -5.42053e-07      93.9442 
         -25      2.25333  0.000166584 -6.79806e-07      93.9434 
         -25      2.61333  0.000162129  -1.3865e-06      93.9424 
         -25            3  0.000159042 -3.26385e-06      93.9411 
           0            0  6.27022e-19 -8.34151e-19      90.6568 
           0     0.013333  0.000599286 -0.000401611      90.6612 
           0     0.053333  0.000335448 -0.000208657      90.6686 
           0         0.12  0.000214874 -0.000143911       90.677 
           0     0.213332  0.000154046 -0.000110552      90.6862 
           0     0.333332  0.000125082 -8.93337e-05      90.6957 
           0         0.48  0.000108689 -7.32584e-05      90.7055 
           0     0.653331  0.000101857 -6.05683e-05      90.7154 
           0     0.853332  0.000105294 -4.98744e-05      90.7253 
           0         1.08  0.000115433 -4.06163e-05      90.7351 
           0      1.33333  0.000126074 -3.27559e-05      90.7447 
           0      1.61333  0.000135806 -2.62612e-05       90.754 
           0         1.92  0.000145436 -2.09796e-05       90.763 
           0      2.25333  0.000155065 -1.70065e-05      90.7717 
           0      2.61333  0.000159189 -1.42813e-05      90.7799 
           0            3   0.00016118  -9.7507e-06      90.7877 
          20            0           -0           -0      88.8283 
          20     0.013333  0.000165546  1.65384e-07      88.8283 
          20     0.053333   0.00011867  1.72311e-06      88.8283 
          20         0.12  3.50849e-05  6.93194e-06      88.8283 
          20     0.213332 -5.77447e-05  1.69281e-05      88.8283 
          20     0.333332 -0.000110042  3.10532e-05      88.8282 
          20         0.48  -0.00013178  4.69058e-05       88.828 
          20     0.653331 -0.000163195  6.07249e-05      88.8278 
          20     0.853332 -0.000158112  7.32394e-05      88.8275 
          20         1.08 -9.66217e-05  8.59974e-05       88.827 
          20      1.33333 -1.94768e-05  9.65669e-05      88.8263 
          20      1.61333   5.5843e-05  0.000102886      88.8254 
          20         1.92  0.000123885   0.00010409      88.8243 
          20      2.25333  0.000176877   0.00010021      88.8228 
          20      2.61333  0.000208446  9.24911e-05      88.8211 
          20            3  0.000218705  8.24498e-05       88.819 
          40            0           -0           -0       86.753 
          40     0.013333  0.000149839  1.47247e-08       86.753 
          40     0.053333   0.00013895  1.05554e-07       86.753 
          40         0.12  0.000137857  3.12531e-07       86.753 
          40     0.213332  0.000133728  7.40116e-07       86.753 
          40     0.333332  0.000116788  1.83772e-06       86.753 
          40         0.48  8.81367e-05  4.09505e-06       86.753 
          40     0.653331  6.11881e-05  7.86631e-06      86.7529 
          40     0.853332  5.58219e-05  1.39548e-05      86.7529 
          40         1.08  7.52306e-05  2.23721e-05      86.7528 
          40      1.33333     9.97e-05  3.14983e-05      86.7527 
          40      1.61333  0.000119389  3.96164e-05      86.7526 
          40         1.92  0.000134221  4.57567e-05      86.7525 
          40      2.25333  0.000142612  4.91799e-05      86.7523 
          40      2.61333  0.000140205  4.93198e-05       86.752 
          40            3  0.000128867  4.71042e-05      86.7517 
          60            0           -0           -0      84.8135 
          60     0.013333  0.000180409 -4.71854e-08      84.8135 
          60     0.053333  0.000271468 -6.09471e-07      84.8135 
          60         0.12  0.000396271 -1.85676e-06      84.8135 
          60     0.213332  0.000485016 -2.34515e-06      84.8135 
          60     0.333332  0.000510007 -1.18722e-08      84.8135 
          60         0.48  0.000499531  5.63388e-06      84.8135 
          60     0.653331  0.000479586  1.28271e-05      84.8135 
          60     0.853332   0.00043351  1.84246e-05      84.8134 
          60         1.08  0.000354114  2.12941e-05      84.8134 
          60      1.33333  0.000276596  2.30013e-05      84.8134 
          60      1.61333  0.000207423  2.45631e-05      84.8133 
          60         1.92  0.000140697  2.55207e-05      84.8132 
          60      2.25333  8.68617e-05  2.54333e-05      84.8131 
          60      2.61333  5.18343e-05  2.47219e-05      84.8129 
          60            3   3.5816e-05  2.36218e-05      84.8128 
          80            0           -0           -0      82.9378 
          80     0.013333  0.000168253 -1.73782e-08      82.9378 
          80     0.053333  0.000232478 -1.89604e-07      82.9378 
          80         0.12  0.000317759 -2.77763e-07      82.9378 
          80     0.213332  0.000376534  8.27853e-07      82.9378 
          80     0.333332   0.00039704  4.23669e-06      82.9378 
          80         0.48  0.000400553  1.00065e-05      82.9378 
          80     0.653331  0.000402116  1.70363e-05      82.9377 
          80     0.853332  0.000383036  2.30726e-05      82.9377 
          80         1.08  0.000323938  2.63607e-05      82.9377 
          80      1.33333  0.000255751  2.75166e-05      82.9377 
          80      1.61333  0.000199997  2.79125e-05      82.9376 
          80         1.92  0.000147409  2.73236e-05      82.9376 
          80      2.25333  0.000100735  2.52879e-05      82.9375 
          80      2.61333  6.47392e-05  2.22456e-05      82.9374 
          80            3  4.39658e-05  1.87074e-05      82.9373 
         100            0  1.62083e-19  7.86676e-25      81.1009 
         100     0.013333  0.000153796 -2.58991e-09      81.1009 
         100     0.053333  0.000184189 -2.71304e-09      81.1009 
         100         0.12  0.000224144  3.08143e-07      81.1009 
         100     0.213332  0.000241377  1.72616e-06      81.1009 
         100     0.333332  0.000230571  4.96343e-06      81.1009 
         100         0.48   0.00020918  1.00266e-05      81.1009 
         100     0.653331  0.000193115  1.63101e-05      81.1009 
         100     0.853332  0.000181381  2.28196e-05      81.1009 
         100         1.08  0.000164268  2.85687e-05      81.1009 
         100      1.33333  0.000144182  3.30954e-05      81.1009 
         100      1.61333  0.000126762  3.64742e-05      81.1009 
         100         1.92  0.000109285  3.83035e-05      81.1008 
         100      2.25333  9.76399e-05  3.84823e-05      81.1008 
         100      2.61333  9.55607e-05  3.72186e-05      81.1007 
         100            3  0.000100686  3.47057e-05      81.1007 
         150            0           -0           -0      76.5987 
         150     0.013333  0.000127225  4.03829e-08      76.5987 
         150     0.053333  9.14365e-05  5.52528e-07      76.5987 
         150         0.12   4.8434e-05  2.17589e-06      76.5987 
         150     0.213332  9.60614e-06   4.8658e-06      76.5987 
         150     0.333332 -9.43757e-06  7.88771e-06      76.5987 
         150         0.48 -9.35894e-06  1.07961e-05      76.5987 
         150     0.653331  3.82066e-06  1.40015e-05      76.5987 
         150     0.853332   3.0929e-05  1.82365e-05      76.5987 
         150         1.08  6.44892e-05   2.3196e-05      76.5987 
         150      1.33333  8.82064e-05   2.7661e-05      76.5986 
         150      1.61333  0.000104369  3.09131e-05      76.5986 
         150         1.92  0.000119376  3.28707e-05      76.5986 
         150      2.25333  0.000131523  3.33589e-05      76.5986 
         150      2.61333  0.000139342  3.23561e-05      76.5986 
         150            3  0.000142245  3.00453e-05      76.5986 
         200            0            0            0      72.1527 
         200     0.013333  0.000150873 -4.97903e-08      72.1527 
         200     0.053333  0.000196975 -6.90904e-07      72.1527 
         200         0.12  0.000286565  -2.7354e-06      72.1527 
         200     0.213332  0.000380519 -6.13338e-06      72.1527 
         200     0.333332  0.000441454 -9.82067e-06      72.1527 
         200         0.48  0.000462975 -1.28044e-05      72.1527 
         200     0.653331  0.000458837 -1.50776e-05      72.1527 
         200     0.853332  0.000432879 -1.75654e-05      72.1527 
         200         1.08  0.000382365 -2.09146e-05      72.1527 
         200      1.33333  0.000321257 -2.45595e-05      72.1527 
         200      1.61333  0.000261444 -2.74377e-05      72.1527 
         200         1.92  0.000199302 -2.92606e-05      72.1527 
         200      2.25333  0.000139965 -2.99183e-05      72.1527 
         200      2.61333  8.91905e-05 -2.93539e-05      72.1527 
         200            3  5.17739e-05 -2.77028e-05      72.1527 
         250            0           -0           -0      67.7252 
         250     0.013333  0.000114109  2.63463e-08      67.7252 
         250     0.053333  4.75398e-05  3.70867e-07      67.7252 
         250         0.12 -3.66173e-05  1.50325e-06      67.7252 
         250     0.213332 -0.000119444  3.42691e-06      67.7252 
         250     0.333332 -0.000175521  5.42339e-06      67.7252 
         250         0.48 -0.000197073  6.58832e-06      67.7252 
         250     0.653331 -0.000194828  6.52479e-06      67.7252 
         250     0.853332 -0.000179826  5.47676e-06      67.7252 
         250         1.08  -0.00015327  3.90383e-06      67.7252 
         250      1.33333 -0.000113918  2.15963e-06      67.7252 
         250      1.61333 -6.46616e-05  3.65828e-07      67.7252 
         250         1.92 -9.80146e-06  -1.4845e-06      67.7252 
         250      2.25333  4.71011e-05 -3.13221e-06      67.7252 
         250      2.61333  9.97216e-05 -4.63061e-06      67.7252 
         250            3  0.000140123 -5.96161e-06      67.7252 
         300            0            0            0       63.304 
         300     0.013333  0.000171904  8.81597e-09       63.304 
         300     0.053333  0.000256985  2.02614e-07       63.304 
         300         0.12  0.000354106    1.371e-06       63.304 
         300     0.213332  0.000403066  5.04345e-06       63.304 
         300     0.333332  0.000390849   1.2592e-05       63.304 
         300         0.48  0.000349845  2.41676e-05       63.304 
         300     0.653331  0.000315815  3.87603e-05       63.304 
         300     0.853332  0.000297318  5.49275e-05       63.304 
         300         1.08  0.000281163  7.12835e-05       63.304 
         300      1.33333  0.000254803   8.6596e-05       63.304 
         300      1.61333  0.000219623   9.9968e-05       63.304 
         300         1.92  0.000182243  0.000110625       63.304 
         300      2.25333  0.000144013  0.000117551       63.304 
         300      2.61333  0.000107702  0.000120157       63.304 
         300            3  7.77533e-05   0.00011829       63.304 
         350            0           -0           -0      58.8839 
         350     0.013333  0.000177373 -8.23375e-08      58.8839 
         350     0.053333  0.000302003  -1.1367e-06      58.8839 
         350         0.12  0.000505824 -4.47954e-06      58.8839 
         350     0.213332  0.000712879 -9.94814e-06      58.8839 
         350     0.333332  0.000848582 -1.55789e-05      58.8839 
         350         0.48  0.000897647 -1.94087e-05      58.8839 
         350     0.653331  0.000892057 -2.11447e-05      58.8839 
         350     0.853332  0.000852767 -2.22414e-05      58.8839 
         350         1.08  0.000771835 -2.45586e-05      58.8839 
         350      1.33333  0.000654857 -2.84706e-05      58.8839 
         350      1.61333  0.000530851 -3.25514e-05      58.8839 
         350         1.92  0.000404873 -3.57016e-05      58.8839 
         350      2.25333  0.000275227 -3.79092e-05      58.8839 
         350      2.61333  0.000150647 -3.88685e-05      58.8839 
         350            3  4.56524e-05  -3.8462e-05      58.8839 
         400            0           -0           -0      54.4631 
         400     0.013333  9.21192e-05 -6.66745e-09      54.4631 
         400     0.053333 -2.03883e-05 -1.58392e-07      54.4631 
         400         0.12 -0.000132073 -1.09331e-06      54.4631 
         400     0.213332 -0.000198193 -4.07256e-06      54.4631 
         400     0.333332 -0.000207098 -1.02796e-05      54.4631 
         400         0.48 -0.000184667  -1.9965e-05      54.4631 
         400     0.653331 -0.000162541 -3.24372e-05      54.4631 
         400     0.853332 -0.000151708 -4.65708e-05      54.4631 
         400         1.08 -0.000140558 -6.10753e-05      54.4631 
         400      1.33333 -0.000113554 -7.46981e-05      54.4631 
         400      1.61333 -7.06283e-05 -8.65772e-05      54.4631 
         400         1.92 -2.21272e-05 -9.62889e-05      54.4631 
         400      2.25333  2.89424e-05 -0.000103087      54.4631 
         400      2.61333  7.97598e-05 -0.000106467      54.4631 
         400            3  0.000125329 -0.000106192      54.4631 
         450            0            0            0      50.0419 
         450     0.013333  0.000110656  4.24115e-08      50.0419 
         450     0.053333  3.25575e-05   5.8724e-07      50.0419 
         450         0.12 -6.92001e-05  2.31763e-06      50.0419 
         450     0.213332 -0.000165359  5.12956e-06      50.0419 
         450     0.333332 -0.000221244  7.94741e-06      50.0419 
         450         0.48 -0.000231384  9.74188e-06      50.0419 
         450     0.653331 -0.000214849  1.04957e-05      50.0419 
         450     0.853332 -0.000184625  1.11328e-05      50.0419 
         450         1.08 -0.000138188  1.26648e-05      50.0419 
         450      1.33333 -8.17658e-05  1.50311e-05      50.0419 
         450      1.61333 -3.24125e-05  1.71778e-05      50.0419 
         450         1.92  1.16228e-05   1.8694e-05      50.0419 
         450      2.25333  5.65077e-05  1.94404e-05      50.0419 
         450      2.61333  0.000101172  1.95497e-05      50.0419 
         450            3   0.00014071  1.90953e-05      50.0419 
         500            0           -0           -0        45.62 
         500     0.013333  0.000149261 -3.43212e-09        45.62 
         500     0.053333  0.000183556 -4.24082e-08        45.62 
         500         0.12   0.00024441 -1.35393e-07        45.62 
         500     0.213332  0.000307324 -1.81326e-07        45.62 
         500     0.333332  0.000353642  8.64636e-08        45.62 
         500         0.48   0.00037617  1.07517e-06        45.62 
         500     0.653331   0.00038084  3.21898e-06        45.62 
         500     0.853332   0.00038007   6.8072e-06        45.62 
         500         1.08  0.000379696  1.16448e-05        45.62 
         500      1.33333  0.000368632  1.68303e-05        45.62 
         500      1.61333  0.000336107  2.13173e-05        45.62 
         500         1.92  0.000292019  2.50331e-05        45.62 
         500      2.25333   0.00024265   2.7808e-05        45.62 
         500      2.61333  0.000190185  2.96211e-05        45.62 
         500            3  0.000138363  3.04872e-05        45.62 
         550            0            0            0      41.1967 
         550     0.013333  0.000140104  8.99859e-08      41.1967 
         550     0.053333   0.00012029  1.35772e-06      41.1967 
         550         0.12  3.97722e-05  6.16461e-06      41.1967 
         550     0.213332  -0.00011608  1.65169e-05      41.1967 
         550     0.333332 -0.000291258  3.24378e-05      41.1967 
         550         0.48 -0.000416911  5.21496e-05      41.1967 
         550     0.653331 -0.000466363  7.38518e-05      41.1967 
         550     0.853332  -0.00044938  9.68804e-05      41.1967 
         550         1.08  -0.00038611   0.00012103      41.1967 
         550      1.33333 -0.000305614  0.000145204      41.1967 
         550      1.61333 -0.000232035  0.000167553      41.1967 
         550         1.92 -0.000160751  0.000186819      41.1967 
         550      2.25333 -8.30484e-05  0.000201891      41.1967 
         550      2.61333 -1.06833e-06   0.00021166      41.1967 
         550            3  7.65277e-05  0.000215229      41.1967 
         600            0           -0           -0      36.7726 
         600     0.013333  0.000120489 -6.74407e-08      36.7726 
         600     0.053333  9.62188e-05 -1.00128e-06      36.7726 
         600         0.12  0.000123973 -4.45513e-06      36.7726 
         600     0.213332  0.000207261 -1.17289e-05      36.7726 
         600     0.333332  0.000310057 -2.28363e-05      36.7726 
         600         0.48  0.000392008 -3.68454e-05      36.7726 
         600     0.653331  0.000436698  -5.2994e-05      36.7726 
         600     0.853332  0.000441665 -7.13121e-05      36.7726 
         600         1.08  0.000404754 -9.21812e-05      36.7726 
         600      1.33333  0.000338971 -0.000115029      36.7726 
         600      1.61333  0.000277851 -0.000137706      36.7726 
         600         1.92  0.000234387 -0.000158241      36.7726 
         600      2.25333  0.000194485 -0.000175292      36.7726 
         600      2.61333  0.000152827 -0.000187879      36.7726 
         600            3   0.00011337 -0.000195139      36.7726 
         650            0            0            0       32.347 
         650     0.013333  0.000122745 -1.60074e-08       32.347 
         650     0.053333  9.18102e-05 -2.59969e-07       32.347 
         650         0.12  8.48051e-05 -1.30479e-06       32.347 
         650     0.213332  0.000111211 -3.88685e-06       32.347 
         650     0.333332  0.000161416 -8.41423e-06       32.347 
         650         0.48  0.000211623 -1.46545e-05       32.347 
         650     0.653331  0.000243394 -2.19912e-05       32.347 
         650     0.853332  0.000252818 -2.98549e-05       32.347 
         650         1.08  0.000247686 -3.77587e-05       32.347 
         650      1.33333  0.000239437 -4.52228e-05       32.347 
         650      1.61333  0.000231289 -5.19805e-05       32.347 
         650         1.92  0.000218114 -5.78489e-05       32.347 
         650      2.25333  0.000200481 -6.30134e-05       32.347 
         650      2.61333  0.000180375 -6.67966e-05       32.347 
         650            3  0.000159121 -6.86476e-05       32.347 
         700            0           -0           -0      27.9198 
         700     0.013333  0.000133811  2.12728e-08      27.9198 
         700     0.053333  0.000119451  3.16771e-07      27.9198 
         700         0.12  0.000101939  1.40057e-06      27.9198 
         700     0.213332  7.74383e-05  3.59993e-06      27.9198 
         700     0.333332  5.90445e-05  6.69177e-06      27.9198 
         700         0.48  5.86185e-05  1.01239e-05      27.9198 
         700     0.653331  7.56491e-05  1.36066e-05      27.9198 
         700     0.853332  0.000103678  1.73124e-05      27.9198 
         700         1.08  0.000136686  2.14177e-05      27.9198 
         700      1.33333  0.000162751  2.54818e-05      27.9198 
         700      1.61333   0.00017023  2.87576e-05      27.9198 
         700         1.92    0.0001665  3.08943e-05      27.9198 
         700      2.25333  0.000161115  3.22861e-05      27.9198 
         700      2.61333  0.000155994  3.27502e-05      27.9198 
         700            3  0.000149745  3.20345e-05      27.9198 
         750            0            0            0      23.4912 
         750     0.013333  0.000150759 -5.36317e-08      23.4912 
         750     0.053333  0.000203067 -7.79767e-07      23.4912 
         750         0.12  0.000320695 -3.35216e-06      23.4912 
         750     0.213332  0.000473585 -8.40568e-06      23.4912 
         750     0.333332  0.000608605 -1.53446e-05      23.4912 
         750         0.48  0.000688871 -2.28601e-05      23.4912 
         750     0.653331  0.000715233 -3.00694e-05      23.4912 
         750     0.853332  0.000704953 -3.70895e-05      23.4912 
         750         1.08  0.000664884 -4.47358e-05      23.4912 
         750      1.33333  0.000597286  -5.3433e-05      23.4912 
         750      1.61333  0.000519238 -6.24281e-05      23.4912 
         750         1.92  0.000445987 -7.06482e-05      23.4912 
         750      2.25333  0.000370514  -7.7403e-05      23.4912 
         750      2.61333  0.000289348  -8.2478e-05      23.4912 
         750            3  0.000206518 -8.56192e-05      23.4912 
         800            0           -0           -0       19.061 
         800     0.013333  0.000179962 -1.00807e-08       19.061 
         800     0.053333  0.000294853  -1.1091e-07       19.061 
         800         0.12   0.00045443 -2.10465e-07       19.061 
         800     0.213332  0.000589489  4.67831e-07       19.061 
         800     0.333332  0.000650168  3.34297e-06       19.061 
         800         0.48  0.000633711  9.64493e-06       19.061 
         800     0.653331   0.00057512  1.95927e-05       19.061 
         800     0.853332  0.000510791  3.24639e-05       19.061 
         800         1.08   0.00045852  4.73665e-05       19.061 
         800      1.33333   0.00042079  6.36618e-05       19.061 
         800      1.61333  0.000387906  8.06213e-05       19.061 
         800         1.92  0.000344115  9.69955e-05       19.061 
         800      2.25333  0.000291521  0.000111911       19.061 
         800      2.61333  0.000234441  0.000124645       19.061 
         800            3  0.000175945  0.000134409       19.061 
         850            0           -0           -0      14.6295 
         850     0.013333  0.000134785  1.64004e-07      14.6295 
         850     0.053333  7.28317e-05  2.48043e-06      14.6295 
         850         0.12  -0.00013248  1.13243e-05      14.6295 
         850     0.213332 -0.000501116  3.05935e-05      14.6295 
         850     0.333332 -0.000914319   6.0599e-05      14.6295 
         850         0.48  -0.00121696  9.79069e-05      14.6295 
         850     0.653331  -0.00134047  0.000138447      14.6295 
         850     0.853332  -0.00131003   0.00018029      14.6295 
         850         1.08  -0.00117881  0.000223334      14.6295 
         850      1.33333  -0.00100342   0.00026674      14.6295 
         850      1.61333 -0.000837029  0.000308042      14.6295 
         850         1.92 -0.000688742  0.000345223      14.6295 
         850      2.25333 -0.000531816  0.000376663      14.6295 
         850      2.61333 -0.000356562  0.000401005      14.6295 
         850            3 -0.000171432  0.000416505      14.6296 
         900            0           -0           -0      10.1975 
         900     0.013333 -9.77742e-05  -2.8197e-08      10.1975 
         900     0.053333 -0.000701621 -6.52676e-07      10.1975 
         900         0.12  -0.00139134 -4.52777e-06      10.1975 
         900     0.213332  -0.00187023 -1.73452e-05      10.1975 
         900     0.333332  -0.00198907 -4.55666e-05      10.1975 
         900         0.48  -0.00182871 -9.23487e-05      10.1975 
         900     0.653331  -0.00158825 -0.000156079      10.1975 
         900     0.853332  -0.00141734 -0.000232417      10.1975 
         900         1.08  -0.00133943 -0.000316154      10.1975 
         900      1.33333  -0.00127343  -0.00040143      10.1975 
         900      1.61333  -0.00113287 -0.000482672      10.1975 
         900         1.92  -0.00092582 -0.000556854      10.1975 
         900      2.25333 -0.000699888 -0.000623071      10.1975 
         900      2.61333 -0.000467909 -0.000678046      10.1975 
         900            3 -0.000226028 -0.000717896      10.1976 
         950            0           -0           -0      5.76533 
         950     0.013333   8.2158e-05 -2.11458e-07      5.76533 
         950     0.053333  8.18706e-06 -3.20808e-06      5.76533 
         950         0.12  0.000111476 -1.47788e-05      5.76533 
         950     0.213332  0.000467441 -4.06015e-05      5.76533 
         950     0.333332    0.0009686 -8.24855e-05      5.76533 
         950         0.48   0.00142029  -0.00013761      5.76533 
         950     0.653331   0.00169694  -0.00020142      5.76533 
         950     0.853332    0.0017843 -0.000271004      5.76533 
         950         1.08   0.00171627 -0.000345771      5.76533 
         950      1.33333   0.00153424  -0.00042536      5.76533 
         950      1.61333   0.00130277  -0.00050708      5.76533 
         950         1.92   0.00109385 -0.000585695      5.76533 
         950      2.25333  0.000900354 -0.000656915      5.76533 
         950      2.61333   0.00069886 -0.000716947      5.76532 
         950            3   0.00048285 -0.000762258      5.76531 
        1000            0           -0           -0      1.33148 
        1000     0.013333  0.000255769 -1.38937e-07      1.33148 
        1000     0.053333  0.000615948 -1.92742e-06      1.33148 
        1000         0.12   0.00119628 -7.73106e-06      1.33148 
        1000     0.213332   0.00184554 -1.74781e-05      1.33148 
        1000     0.333332   0.00236073 -2.73553e-05      1.33148 
        1000         0.48     0.002622 -3.23122e-05      1.33148 
        1000     0.653331   0.00265752 -2.97312e-05      1.33148 
        1000     0.853332   0.00256937 -2.06629e-05      1.33148 
        1000         1.08   0.00242062 -8.66428e-06      1.33148 
        1000      1.33333   0.00220675  2.61951e-06      1.33148 
        1000      1.61333   0.00192238  1.15599e-05      1.33148 
        1000         1.92   0.00160598  1.88769e-05      1.33147 
        1000      2.25333   0.00127893  2.66628e-05      1.33146 
        1000      2.61333  0.000937134  3.46806e-05      1.33145 
        1000            3  0.000575962  4.23966e-05      1.33143 
