Variables = x, y, u, v, p

Zone, I=2080, F=POINT
         -50            0            0            0       39.521 
         -50      0.00048  4.17841e-05  2.02258e-09       39.521 
         -50     0.001922  0.000148416    8.395e-09       39.521 
         -50     0.004326  0.000273072  1.98005e-08       39.521 
         -50      0.00769  0.000365707  3.67835e-08       39.521 
         -50     0.012017  0.000399812  5.92301e-08       39.521 
         -50     0.017304  0.000385324  8.60355e-08       39.521 
         -50     0.023553  0.000359033  1.15363e-07       39.521 
         -50     0.030763  0.000355107  1.45224e-07       39.521 
         -50     0.038936  0.000375121  1.74161e-07       39.521 
         -50     0.048069   0.00038642    2.013e-07       39.521 
         -50     0.058163  0.000366801  2.25502e-07       39.521 
         -50     0.069219  0.000359755  2.44154e-07       39.521 
         -50     0.081236  0.000379025  2.54847e-07      39.5209 
         -50     0.094215  0.000368736  2.57346e-07      39.5209 
         -50     0.108155  0.000370862  2.49319e-07      39.5209 
         -50     0.123056  0.000370594  2.28257e-07      39.5209 
         -50     0.138918  0.000371108  1.92443e-07      39.5209 
         -50     0.155744  0.000372977  1.41001e-07      39.5209 
         -50     0.173529  0.000375182  7.33015e-08      39.5209 
         -50     0.192276  0.000376796 -1.15884e-08      39.5209 
         -50     0.211984  0.000378391 -1.14337e-07      39.5209 
         -50     0.232655  0.000381358 -2.32325e-07      39.5209 
         -50     0.254285  0.000383318 -3.54346e-07      39.5209 
         -50     0.276877  0.000386079 -4.92107e-07      39.5209 
         -50     0.300431  0.000388702 -6.19714e-07      39.5209 
         -50     0.324946  0.000391253  -7.1732e-07      39.5209 
         -50     0.350424  0.000393758 -7.87636e-07      39.5209 
         -50     0.376861  0.000396205 -8.51011e-07      39.5209 
         -50      0.40426  0.000398554  -9.3752e-07      39.5208 
         -50     0.432621  0.000400746 -1.07692e-06      39.5208 
         -50     0.461945  0.000402727 -1.28846e-06      39.5208 
         -50     0.492228  0.000404454 -1.57336e-06      39.5208 
         -50     0.523472  0.000405905 -1.91461e-06      39.5208 
         -50     0.555678  0.000407074 -2.28977e-06      39.5208 
         -50     0.588845  0.000407937 -2.70517e-06      39.5207 
         -50     0.622976  0.000408436 -3.03041e-06      39.5207 
         -50     0.658066  0.000408609 -3.13384e-06      39.5207 
         -50     0.694117  0.000408483 -3.29627e-06      39.5206 
         -50      0.73113  0.000408127 -3.51535e-06      39.5206 
         -50     0.769107  0.000407605  -3.7853e-06      39.5206 
         -50     0.808042  0.000406973  -4.0971e-06      39.5205 
         -50     0.847939  0.000406275 -4.43911e-06      39.5205 
         -50     0.888797  0.000405548 -4.79759e-06      39.5204 
         -50      0.93062  0.000404817 -5.15765e-06      39.5204 
         -50       0.9734  0.000404096 -5.50406e-06      39.5203 
         -50      1.01714  0.000403388 -5.82261e-06      39.5203 
         -50      1.06185  0.000402685 -6.10099e-06      39.5202 
         -50      1.10751  0.000401972 -6.33012e-06      39.5202 
         -50      1.15414  0.000401227 -6.50501e-06      39.5201 
         -50      1.20173  0.000400424 -6.62556e-06        39.52 
         -50      1.25028  0.000399537 -6.69691e-06        39.52 
         -50      1.29979  0.000398541 -6.72915e-06      39.5199 
         -50      1.35026  0.000397421 -6.73623e-06      39.5198 
         -50       1.4017  0.000396171  -6.7337e-06      39.5197 
         -50      1.45409  0.000394803 -6.73511e-06      39.5196 
         -50      1.50745  0.000393351 -6.75557e-06      39.5195 
         -50      1.56176  0.000391779 -7.09585e-06      39.5194 
         -50      1.61705  0.000389979  -7.1797e-06      39.5193 
         -50      1.67329  0.000388125 -7.05642e-06      39.5192 
         -50      1.73049  0.000386352 -6.77656e-06       39.519 
         -50      1.78865  0.000384754 -6.39084e-06      39.5189 
         -50      1.84778  0.000383387 -5.94907e-06      39.5188 
         -50      1.90786  0.000382272 -5.49911e-06      39.5186 
         -50      1.96891  0.000381395 -5.08547e-06      39.5185 
         -50      2.03092  0.000380718 -4.74822e-06      39.5183 
         -50      2.09389  0.000380177 -4.52166e-06      39.5182 
         -50      2.15782  0.000379696 -4.43321e-06       39.518 
         -50      2.22272  0.000379186 -4.50213e-06      39.5178 
         -50      2.28857  0.000378561 -4.73859e-06      39.5176 
         -50      2.35539  0.000377739 -5.14275e-06      39.5174 
         -50      2.42317  0.000376655 -5.70417e-06      39.5172 
         -50      2.49191  0.000375263 -6.40129e-06       39.517 
         -50      2.56161  0.000373551 -7.20167e-06      39.5168 
         -50      2.63226  0.000371537 -8.06233e-06      39.5165 
         -50      2.70389   0.00036928 -8.93088e-06      39.5163 
         -50      2.77648  0.000366882 -9.74689e-06       39.516 
         -50      2.85002  0.000364479 -1.04449e-05      39.5158 
         -50      2.92453  0.000362244 -1.09573e-05      39.5155 
         -50            3  0.000360371 -1.12192e-05      39.5152 
         -25            0  3.05312e-19  7.70396e-24      37.9393 
         -25      0.00048   3.0441e-05  8.14141e-10      37.9393 
         -25     0.001922  0.000108039  3.42526e-09      37.9393 
         -25     0.004326  0.000198469  8.24504e-09      37.9393 
         -25      0.00769  0.000265045  1.57123e-08      37.9393 
         -25     0.012017  0.000288338  2.60677e-08      37.9393 
         -25     0.017304  0.000275647  3.91828e-08      37.9393 
         -25     0.023553  0.000253955  5.46147e-08      37.9393 
         -25     0.030763  0.000248335  7.17699e-08      37.9393 
         -25     0.038936  0.000259966  9.01133e-08      37.9393 
         -25     0.048069   0.00026494  1.09136e-07      37.9393 
         -25     0.058163  0.000247018  1.28009e-07      37.9393 
         -25     0.069219  0.000238124  1.45134e-07      37.9393 
         -25     0.081236  0.000248378  1.58834e-07      37.9393 
         -25     0.094215   0.00023686  1.67964e-07      37.9393 
         -25     0.108155   0.00023439   1.7043e-07      37.9393 
         -25     0.123056  0.000230152  1.64325e-07      37.9393 
         -25     0.138918  0.000226516  1.47661e-07      37.9393 
         -25     0.155744  0.000223936  1.18543e-07      37.9393 
         -25     0.173529  0.000221696  7.51996e-08      37.9393 
         -25     0.192276  0.000219138  1.59449e-08      37.9393 
         -25     0.211984  0.000216697 -6.07466e-08      37.9393 
         -25     0.232655  0.000215404 -1.56053e-07      37.9393 
         -25     0.254285  0.000213522 -2.70464e-07      37.9393 
         -25     0.276877  0.000212379 -4.06186e-07      37.9393 
         -25     0.300431  0.000211285 -5.62198e-07      37.9393 
         -25     0.324946  0.000210293 -7.37524e-07      37.9393 
         -25     0.350424  0.000209429 -9.31886e-07      37.9393 
         -25     0.376861  0.000208685 -1.14514e-06      37.9393 
         -25      0.40426  0.000208039 -1.37677e-06      37.9393 
         -25     0.432621   0.00020746 -1.62516e-06      37.9393 
         -25     0.461945  0.000206927 -1.88719e-06      37.9393 
         -25     0.492228  0.000206439  -2.1583e-06      37.9393 
         -25     0.523472  0.000206017 -2.43357e-06      37.9393 
         -25     0.555678  0.000205699  -2.7102e-06      37.9393 
         -25     0.588845  0.000205503 -2.99233e-06      37.9393 
         -25     0.622976  0.000205417 -3.29467e-06      37.9392 
         -25     0.658066  0.000205523 -3.58664e-06      37.9392 
         -25     0.694117  0.000205848 -3.86589e-06      37.9392 
         -25      0.73113  0.000206447  -4.1415e-06      37.9392 
         -25     0.769107  0.000207359 -4.41755e-06      37.9392 
         -25     0.808042   0.00020861 -4.69357e-06      37.9392 
         -25     0.847939  0.000210212 -4.96557e-06      37.9392 
         -25     0.888797   0.00021216 -5.22698e-06      37.9391 
         -25      0.93062  0.000214439 -5.47016e-06      37.9391 
         -25       0.9734  0.000217019 -5.68777e-06      37.9391 
         -25      1.01714  0.000219861 -5.87447e-06      37.9391 
         -25      1.06185  0.000222919 -6.02811e-06      37.9391 
         -25      1.10751  0.000226143 -6.15081e-06       37.939 
         -25      1.15414  0.000229482 -6.24914e-06       37.939 
         -25      1.20173  0.000232888 -6.33335e-06       37.939 
         -25      1.25028  0.000236319 -6.41508e-06       37.939 
         -25      1.29979  0.000239745 -6.50297e-06      37.9389 
         -25      1.35026  0.000243146 -6.59571e-06      37.9389 
         -25       1.4017  0.000246512 -6.67149e-06      37.9389 
         -25      1.45409  0.000249845 -6.67332e-06      37.9388 
         -25      1.50745  0.000253141 -6.50533e-06      37.9388 
         -25      1.56176   0.00025586 -6.83675e-06      37.9388 
         -25      1.61705  0.000258582 -6.86763e-06      37.9387 
         -25      1.67329  0.000261306 -6.69748e-06      37.9387 
         -25      1.73049   0.00026402  -6.4128e-06      37.9386 
         -25      1.78865  0.000266708 -6.08608e-06      37.9386 
         -25      1.84778  0.000269351 -5.77511e-06      37.9385 
         -25      1.90786  0.000271922 -5.52267e-06      37.9385 
         -25      1.96891  0.000274395 -5.35626e-06      37.9384 
         -25      2.03092  0.000276741 -5.28842e-06      37.9384 
         -25      2.09389  0.000278933 -5.31733e-06      37.9383 
         -25      2.15782  0.000280946 -5.42766e-06      37.9382 
         -25      2.22272   0.00028276 -5.59192e-06      37.9382 
         -25      2.28857  0.000284359 -5.77204e-06      37.9381 
         -25      2.35539  0.000285736 -5.92142e-06       37.938 
         -25      2.42317  0.000286895 -5.98721e-06      37.9379 
         -25      2.49191  0.000287847 -5.91296e-06      37.9379 
         -25      2.56161  0.000288616 -5.64158e-06      37.9378 
         -25      2.63226  0.000289236 -5.11846e-06      37.9377 
         -25      2.70389  0.000289754 -4.29471e-06      37.9376 
         -25      2.77648  0.000290223 -3.13093e-06      37.9375 
         -25      2.85002  0.000290704 -1.60029e-06      37.9374 
         -25      2.92453   0.00029126  3.07908e-07      37.9373 
         -25            3  0.000291951  2.58515e-06      37.9372 
           0            0  9.28926e-19 -1.40872e-18      36.6129 
           0      0.00048  0.000144338 -8.97725e-05       36.613 
           0     0.001922  0.000501804   -0.0003102      36.6133 
           0     0.004326   0.00088623 -0.000541359      36.6137 
           0      0.00769   0.00110667 -0.000661944      36.6142 
           0     0.012017   0.00107842 -0.000621879      36.6147 
           0     0.017304  0.000871668 -0.000473327      36.6152 
           0     0.023553  0.000659883 -0.000334639      36.6157 
           0     0.030763  0.000585294 -0.000299407      36.6162 
           0     0.038936   0.00063112 -0.000350528      36.6168 
           0     0.048069  0.000631392 -0.000367391      36.6174 
           0     0.058163  0.000491544 -0.000276896       36.618 
           0     0.069219  0.000435515 -0.000229477      36.6186 
           0     0.081236  0.000501809 -0.000289698      36.6193 
           0     0.094215  0.000423221 -0.000237272      36.6199 
           0     0.108155  0.000410957 -0.000227957      36.6206 
           0     0.123056  0.000387121 -0.000215428      36.6213 
           0     0.138918  0.000368037 -0.000204369       36.622 
           0     0.155744  0.000356838 -0.000195678      36.6226 
           0     0.173529  0.000348453 -0.000187927      36.6233 
           0     0.192276  0.000337918 -0.000179754       36.624 
           0     0.211984  0.000327543 -0.000171899      36.6248 
           0     0.232655  0.000323918 -0.000166238      36.6255 
           0     0.254285  0.000316901 -0.000159701      36.6262 
           0     0.276877  0.000313217 -0.000154321      36.6269 
           0     0.300431  0.000309616 -0.000149253      36.6277 
           0     0.324946   0.00030644 -0.000144498      36.6284 
           0     0.350424  0.000303748 -0.000140152      36.6292 
           0     0.376861  0.000301295 -0.000136109      36.6299 
           0      0.40426  0.000298988 -0.000132373      36.6307 
           0     0.432621  0.000296737 -0.000128908      36.6314 
           0     0.461945  0.000294453 -0.000125696      36.6322 
           0     0.492228  0.000292084 -0.000122718      36.6329 
           0     0.523472  0.000289586 -0.000119955      36.6337 
           0     0.555678  0.000286928 -0.000117398      36.6344 
           0     0.588845  0.000284101 -0.000115025      36.6352 
           0     0.622976   0.00028111 -0.000112825       36.636 
           0     0.658066  0.000277973 -0.000110781      36.6367 
           0     0.694117  0.000274722 -0.000108884      36.6375 
           0      0.73113  0.000271403 -0.000107122      36.6382 
           0     0.769107  0.000268068 -0.000105479       36.639 
           0     0.808042  0.000264777 -0.000103945      36.6397 
           0     0.847939  0.000261585 -0.000102515      36.6405 
           0     0.888797  0.000258547 -0.000101171      36.6413 
           0      0.93062  0.000255721 -9.99118e-05       36.642 
           0       0.9734  0.000253135 -9.87181e-05      36.6428 
           0      1.01714  0.000250823  -9.7589e-05      36.6435 
           0      1.06185  0.000248808 -9.65148e-05      36.6443 
           0      1.10751  0.000247097 -9.54842e-05       36.645 
           0      1.15414  0.000245684 -9.44856e-05      36.6457 
           0      1.20173  0.000244555 -9.35222e-05      36.6465 
           0      1.25028  0.000243684 -9.25915e-05      36.6472 
           0      1.29979   0.00024305 -9.16589e-05      36.6479 
           0      1.35026  0.000242627  -9.0759e-05      36.6487 
           0       1.4017    0.0002424 -8.98693e-05      36.6494 
           0      1.45409  0.000242352 -8.89702e-05      36.6501 
           0      1.50745  0.000242452 -8.80611e-05      36.6508 
           0      1.56176  0.000242672 -8.71486e-05      36.6515 
           0      1.61705  0.000243007 -8.62409e-05      36.6522 
           0      1.67329  0.000243452  -8.5329e-05      36.6529 
           0      1.73049  0.000244009 -8.43893e-05      36.6536 
           0      1.78865  0.000244695 -8.34036e-05      36.6543 
           0      1.84778  0.000245571 -8.24029e-05       36.655 
           0      1.90786  0.000246655 -8.13738e-05      36.6557 
           0      1.96891  0.000248038 -8.02756e-05      36.6564 
           0      2.03092  0.000249714 -7.91789e-05       36.657 
           0      2.09389  0.000251625 -7.80302e-05      36.6577 
           0      2.15782  0.000253743 -7.68265e-05      36.6584 
           0      2.22272  0.000255945 -7.55679e-05       36.659 
           0      2.28857  0.000258109 -7.43548e-05      36.6597 
           0      2.35539  0.000260057 -7.32195e-05      36.6603 
           0      2.42317  0.000261614 -7.21808e-05      36.6609 
           0      2.49191  0.000262631 -7.12459e-05      36.6616 
           0      2.56161     0.000263 -7.04156e-05      36.6622 
           0      2.63226  0.000262679 -6.96926e-05      36.6628 
           0      2.70389  0.000261703 -6.90945e-05      36.6634 
           0      2.77648  0.000260159 -6.86307e-05       36.664 
           0      2.85002  0.000258127 -6.81214e-05      36.6646 
           0      2.92453  0.000255833 -6.76022e-05      36.6652 
           0            3  0.000253388 -6.70272e-05      36.6658 
          20            0           -0           -0      35.8756 
          20      0.00048  2.51491e-05  1.58679e-09      35.8756 
          20     0.001922  8.92228e-05   6.8445e-09      35.8756 
          20     0.004326  0.000163773  1.70851e-08      35.8756 
          20      0.00769   0.00021839  3.40239e-08      35.8756 
          20     0.012017  0.000236946  5.93671e-08      35.8756 
          20     0.017304  0.000225443  9.45042e-08      35.8756 
          20     0.023553  0.000206189  1.40675e-07      35.8756 
          20     0.030763  0.000199899  1.99337e-07      35.8756 
          20     0.038936  0.000207501  2.72649e-07      35.8756 
          20     0.048069  0.000209147  3.63429e-07      35.8756 
          20     0.058163  0.000191346  4.74566e-07      35.8756 
          20     0.069219   0.00018051  6.08154e-07      35.8756 
          20     0.081236  0.000185001  7.66921e-07      35.8756 
          20     0.094215  0.000170913  9.55143e-07      35.8756 
          20     0.108155  0.000163788  1.17565e-06      35.8756 
          20     0.123056  0.000154684  1.43246e-06      35.8756 
          20     0.138918    0.0001456  1.72919e-06      35.8756 
          20     0.155744  0.000136963  2.06929e-06      35.8756 
          20     0.173529  0.000128251  2.45573e-06      35.8756 
          20     0.192276  0.000118986  2.89125e-06      35.8756 
          20     0.211984  0.000109598  3.37776e-06      35.8756 
          20     0.232655  0.000101015  3.91584e-06      35.8756 
          20     0.254285  9.18729e-05  4.50359e-06      35.8756 
          20     0.276877  8.32511e-05  5.14088e-06      35.8756 
          20     0.300431   7.4701e-05  5.82338e-06      35.8756 
          20     0.324946  6.62273e-05  6.54672e-06      35.8756 
          20     0.350424  5.78206e-05  7.30617e-06      35.8756 
          20     0.376861  4.94804e-05  8.09555e-06      35.8755 
          20      0.40426  4.11681e-05  8.91041e-06      35.8755 
          20     0.432621  3.28983e-05   9.7467e-06      35.8755 
          20     0.461945  2.47201e-05  1.06013e-05      35.8755 
          20     0.492228  1.67258e-05  1.14725e-05      35.8755 
          20     0.523472  9.05289e-06  1.23603e-05      35.8755 
          20     0.555678  1.88714e-06  1.32671e-05      35.8755 
          20     0.588845 -4.54498e-06  1.41967e-05      35.8754 
          20     0.622976 -9.99784e-06  1.51548e-05      35.8754 
          20     0.658066 -1.42425e-05  1.61469e-05      35.8754 
          20     0.694117  -1.7131e-05  1.71769e-05      35.8754 
          20      0.73113 -1.86407e-05  1.82474e-05      35.8754 
          20     0.769107  -1.8693e-05  1.93626e-05      35.8753 
          20     0.808042 -1.73434e-05  2.05188e-05      35.8753 
          20     0.847939 -1.46823e-05  2.17156e-05      35.8753 
          20     0.888797 -1.08262e-05  2.29509e-05      35.8752 
          20      0.93062 -5.90851e-06   2.4221e-05      35.8752 
          20       0.9734 -7.30902e-08  2.55192e-05      35.8752 
          20      1.01714  6.53978e-06  2.68465e-05      35.8751 
          20      1.06185  1.38065e-05  2.81931e-05      35.8751 
          20      1.10751  2.16198e-05  2.95519e-05       35.875 
          20      1.15414   2.9897e-05  3.09211e-05       35.875 
          20      1.20173  3.85344e-05  3.22921e-05      35.8749 
          20      1.25028  4.75217e-05  3.36614e-05      35.8749 
          20      1.29979  5.68026e-05   3.5019e-05      35.8748 
          20      1.35026  6.63492e-05  3.63581e-05      35.8748 
          20       1.4017   7.6155e-05  3.76753e-05      35.8747 
          20      1.45409  8.62145e-05  3.89675e-05      35.8747 
          20      1.50745  9.65064e-05  4.02295e-05      35.8746 
          20      1.56176     0.000107  4.14531e-05      35.8745 
          20      1.61705  0.000117677  4.26319e-05      35.8744 
          20      1.67329  0.000128477  4.37712e-05      35.8744 
          20      1.73049  0.000139372  4.48577e-05      35.8743 
          20      1.78865  0.000150301  4.58855e-05      35.8742 
          20      1.84778  0.000161174  4.68556e-05      35.8741 
          20      1.90786  0.000171933  4.77702e-05       35.874 
          20      1.96891  0.000182524  4.86295e-05      35.8739 
          20      2.03092   0.00019288  4.94344e-05      35.8738 
          20      2.09389  0.000202916  5.01798e-05      35.8737 
          20      2.15782  0.000212601  5.08675e-05      35.8736 
          20      2.22272  0.000221894  5.15051e-05      35.8735 
          20      2.28857  0.000230712   5.2091e-05      35.8733 
          20      2.35539  0.000238988  5.26245e-05      35.8732 
          20      2.42317  0.000246696  5.31041e-05      35.8731 
          20      2.49191  0.000253878  5.35269e-05       35.873 
          20      2.56161  0.000260363  5.38996e-05      35.8728 
          20      2.63226  0.000266238  5.42029e-05      35.8727 
          20      2.70389  0.000271443  5.44323e-05      35.8725 
          20      2.77648  0.000275927  5.45832e-05      35.8724 
          20      2.85002   0.00027966  5.46407e-05      35.8722 
          20      2.92453  0.000282643  5.45731e-05       35.872 
          20            3  0.000284869  5.43656e-05      35.8719 
          40            0           -0           -0      35.0386 
          40      0.00048  2.38568e-05  2.75594e-10      35.0386 
          40     0.001922  8.53592e-05  2.13116e-09      35.0386 
          40     0.004326   0.00015928   8.6559e-09      35.0386 
          40      0.00769  0.000218551  2.50019e-08      35.0386 
          40     0.012017  0.000248606  5.84493e-08      35.0386 
          40     0.017304   0.00025427  1.18398e-07      35.0386 
          40     0.023553  0.000254674  2.16509e-07      35.0386 
          40     0.030763  0.000267486  3.66659e-07      35.0386 
          40     0.038936  0.000292918   5.8497e-07      35.0386 
          40     0.048069  0.000312864   8.8935e-07      35.0386 
          40     0.058163  0.000314844  1.29924e-06      35.0386 
          40     0.069219  0.000321575  1.83489e-06      35.0386 
          40     0.081236   0.00033994  2.51687e-06      35.0386 
          40     0.094215  0.000339685  3.36551e-06      35.0386 
          40     0.108155  0.000343022  4.39951e-06      35.0386 
          40     0.123056  0.000341914  5.63605e-06      35.0386 
          40     0.138918  0.000338084  7.08942e-06      35.0386 
          40     0.155744  0.000331986  8.77087e-06      35.0386 
          40     0.173529  0.000323346  1.06873e-05      35.0386 
          40     0.192276  0.000312034  1.28428e-05      35.0386 
          40     0.211984  0.000298799  1.52373e-05      35.0386 
          40     0.232655  0.000284879  1.78676e-05      35.0386 
          40     0.254285  0.000269526  2.07249e-05      35.0386 
          40     0.276877  0.000254229  2.38032e-05      35.0386 
          40     0.300431  0.000238988  2.70909e-05      35.0386 
          40     0.324946  0.000224299  3.05732e-05      35.0386 
          40     0.350424  0.000210588   3.4237e-05      35.0386 
          40     0.376861  0.000198202  3.80695e-05      35.0386 
          40      0.40426  0.000187397  4.20594e-05      35.0386 
          40     0.432621  0.000178349  4.61948e-05      35.0386 
          40     0.461945  0.000171159  5.04631e-05      35.0386 
          40     0.492228  0.000165866  5.48496e-05      35.0386 
          40     0.523472  0.000162455  5.93397e-05      35.0386 
          40     0.555678  0.000160852  6.39208e-05      35.0386 
          40     0.588845  0.000160895  6.85864e-05      35.0386 
          40     0.622976  0.000162315  7.33364e-05      35.0386 
          40     0.658066  0.000164952  7.81138e-05      35.0386 
          40     0.694117  0.000168479  8.29084e-05      35.0386 
          40      0.73113  0.000172561  8.77159e-05      35.0386 
          40     0.769107  0.000176891  9.25264e-05      35.0386 
          40     0.808042  0.000181195  9.73238e-05      35.0386 
          40     0.847939  0.000185239  0.000102089      35.0386 
          40     0.888797  0.000188831    0.0001068      35.0386 
          40      0.93062  0.000191827  0.000111432      35.0386 
          40       0.9734  0.000194127  0.000115962      35.0386 
          40      1.01714   0.00019568   0.00012037      35.0386 
          40      1.06185  0.000196476  0.000124636      35.0386 
          40      1.10751  0.000196542  0.000128749      35.0386 
          40      1.15414   0.00019594  0.000132699      35.0386 
          40      1.20173  0.000194753  0.000136483      35.0385 
          40      1.25028  0.000193087  0.000140097      35.0385 
          40      1.29979  0.000191055  0.000143534      35.0385 
          40      1.35026   0.00018878  0.000146778      35.0385 
          40       1.4017  0.000186386  0.000149786      35.0385 
          40      1.45409  0.000184002  0.000152481      35.0385 
          40      1.50745   0.00018176  0.000154733      35.0385 
          40      1.56176  0.000179186  0.000157064      35.0385 
          40      1.61705  0.000176882  0.000159083      35.0385 
          40      1.67329  0.000174807  0.000160786      35.0385 
          40      1.73049  0.000172929  0.000162174      35.0385 
          40      1.78865  0.000171223  0.000163248      35.0384 
          40      1.84778  0.000169677   0.00016401      35.0384 
          40      1.90786  0.000168287  0.000164467      35.0384 
          40      1.96891  0.000167054  0.000164626      35.0384 
          40      2.03092   0.00016599  0.000164497      35.0384 
          40      2.09389  0.000165111  0.000164091      35.0384 
          40      2.15782  0.000164436  0.000163422      35.0384 
          40      2.22272  0.000163989  0.000162503      35.0383 
          40      2.28857  0.000163794  0.000161352      35.0383 
          40      2.35539  0.000163873  0.000159984      35.0383 
          40      2.42317  0.000164244  0.000158419      35.0383 
          40      2.49191  0.000164923  0.000156675      35.0383 
          40      2.56161  0.000165913  0.000154771      35.0382 
          40      2.63226  0.000167213  0.000152725      35.0382 
          40      2.70389  0.000168809  0.000150558      35.0382 
          40      2.77648  0.000170672  0.000148287      35.0382 
          40      2.85002  0.000172766  0.000145929      35.0382 
          40      2.92453  0.000175037  0.000143501      35.0381 
          40            3  0.000177424  0.000141018      35.0381 
          60            0           -0           -0      34.2563 
          60      0.00048  2.33114e-05    1.936e-10      34.2563 
          60     0.001922  8.35924e-05  1.86787e-09      34.2563 
          60     0.004326  0.000156647  8.31055e-09      34.2563 
          60      0.00769  0.000216497  2.50116e-08      34.2563 
          60     0.012017  0.000249133  5.97284e-08      34.2563 
          60     0.017304  0.000259105   1.2246e-07      34.2563 
          60     0.023553  0.000264663  2.25552e-07      34.2563 
          60     0.030763  0.000282645  3.83601e-07      34.2563 
          60     0.038936  0.000313155  6.13436e-07      34.2563 
          60     0.048069  0.000338735  9.33651e-07      34.2563 
          60     0.058163   0.00034732  1.36439e-06      34.2563 
          60     0.069219  0.000360565  1.92674e-06      34.2563 
          60     0.081236   0.00038495  2.64211e-06      34.2563 
          60     0.094215  0.000391375  3.53174e-06      34.2563 
          60     0.108155  0.000401013   4.6155e-06      34.2563 
          60     0.123056  0.000406061  5.91194e-06      34.2563 
          60     0.138918  0.000408074  7.43697e-06      34.2563 
          60     0.155744  0.000407401  9.20383e-06      34.2563 
          60     0.173529  0.000403706  1.12216e-05      34.2563 
          60     0.192276  0.000396804  1.34969e-05      34.2563 
          60     0.211984  0.000387373  1.60326e-05      34.2563 
          60     0.232655  0.000376575  1.88282e-05      34.2563 
          60     0.254285  0.000363688  2.18781e-05      34.2563 
          60     0.276877  0.000350157  2.51794e-05      34.2563 
          60     0.300431  0.000336016  2.87236e-05      34.2563 
          60     0.324946  0.000321801  3.24985e-05      34.2563 
          60     0.350424  0.000307994  3.64938e-05      34.2563 
          60     0.376861  0.000295022  4.06994e-05      34.2563 
          60      0.40426  0.000283245  4.51066e-05      34.2563 
          60     0.432621  0.000272961  4.97062e-05      34.2563 
          60     0.461945  0.000264409  5.44881e-05      34.2563 
          60     0.492228  0.000257783  5.94399e-05      34.2563 
          60     0.523472  0.000253228  6.45497e-05      34.2563 
          60     0.555678   0.00025083  6.98071e-05      34.2563 
          60     0.588845   0.00025058   7.5208e-05      34.2563 
          60     0.622976  0.000252282  8.07535e-05      34.2563 
          60     0.658066  0.000255956  8.63835e-05      34.2563 
          60     0.694117  0.000261356  9.20863e-05      34.2562 
          60      0.73113  0.000268014  9.78526e-05      34.2562 
          60     0.769107  0.000275443  0.000103664      34.2562 
          60     0.808042  0.000283145  0.000109491      34.2562 
          60     0.847939  0.000290635    0.0001153      34.2562 
          60     0.888797  0.000297457  0.000121053      34.2562 
          60      0.93062  0.000303207  0.000126708      34.2562 
          60       0.9734  0.000307545  0.000132227      34.2562 
          60      1.01714  0.000310223  0.000137575      34.2562 
          60      1.06185  0.000311092  0.000142725      34.2562 
          60      1.10751  0.000310123  0.000147659      34.2562 
          60      1.15414    0.0003074  0.000152371      34.2562 
          60      1.20173  0.000303128  0.000156861      34.2562 
          60      1.25028  0.000297609  0.000161139      34.2562 
          60      1.29979  0.000291216  0.000165212      34.2562 