Variables = x, y, u, v, p

Zone, I=10400, F=POINT
         -50            0            0            0     -67.2423 
         -50     0.000942 -2.21728e-05 -4.43976e-09     -67.2423 
         -50     0.003768 -6.81555e-05 -1.56558e-08     -67.2423 
         -50     0.008478 -9.75899e-05  -2.8757e-08     -67.2423 
         -50     0.015075 -9.25642e-05  -3.9167e-08     -67.2423 
         -50     0.023553 -7.50631e-05 -4.48034e-08     -67.2423 
         -50     0.033916  -7.4408e-05 -4.55451e-08     -67.2423 
         -50     0.046163 -8.13097e-05 -4.07838e-08     -67.2423 
         -50       0.0603 -7.08559e-05 -2.81799e-08     -67.2423 
         -50     0.076315 -7.79293e-05 -2.28561e-09     -67.2423 
         -50     0.094215 -7.16288e-05  4.75545e-08     -67.2423 
         -50     0.113999 -7.12983e-05  1.22037e-07     -67.2423 
         -50     0.135675 -7.00955e-05  2.29464e-07     -67.2423 
         -50     0.159228 -7.03352e-05  3.73229e-07     -67.2423 
         -50     0.184664 -7.09287e-05  5.52445e-07     -67.2422 
         -50     0.211985 -7.14673e-05  7.59058e-07     -67.2422 
         -50     0.241201 -7.32758e-05   9.7836e-07     -67.2422 
         -50      0.27229 -7.46906e-05  1.19611e-06     -67.2422 
         -50     0.305263 -7.66337e-05  1.40083e-06     -67.2422 
         -50     0.340135  -7.8645e-05  1.60787e-06     -67.2422 
         -50     0.376877 -8.07045e-05  1.85741e-06     -67.2421 
         -50     0.415503 -8.27287e-05  2.19004e-06     -67.2421 
         -50     0.456013 -8.46121e-05  2.61737e-06     -67.2421 
         -50     0.498424 -8.62798e-05  3.10325e-06      -67.242 
         -50     0.542703  -8.7711e-05  3.57867e-06      -67.242 
         -50     0.588866 -8.88947e-05   4.0321e-06     -67.2419 
         -50     0.636912 -8.97234e-05  4.57872e-06     -67.2418 
         -50     0.686864  -9.0308e-05   5.1057e-06     -67.2418 
         -50     0.738679 -9.06014e-05  5.64886e-06     -67.2417 
         -50     0.792379 -9.05675e-05  6.22964e-06     -67.2416 
         -50     0.847962 -9.02204e-05   6.8423e-06     -67.2415 
         -50     0.905453 -8.96161e-05  7.46129e-06     -67.2414 
         -50     0.964806  -8.8839e-05  8.05027e-06     -67.2413 
         -50      1.02604 -8.79814e-05  8.57577e-06     -67.2411 
         -50      1.08919  -8.7124e-05  9.01881e-06      -67.241 
         -50      1.15419  -8.6317e-05  9.38418e-06     -67.2408 
         -50      1.22108 -8.55652e-05  9.70478e-06     -67.2406 
         -50      1.28985   -8.483e-05  1.00319e-05     -67.2405 
         -50      1.36054 -8.40517e-05  1.04076e-05     -67.2402 
         -50      1.43308 -8.32089e-05  1.08072e-05       -67.24 
         -50      1.50751 -8.24248e-05  1.10538e-05     -67.2398 
         -50      1.58382 -8.09908e-05  1.15687e-05     -67.2395 
         -50      1.66204 -7.84191e-05  1.17716e-05     -67.2393 
         -50      1.74212 -7.52754e-05  1.17906e-05      -67.239 
         -50      1.82409 -7.20093e-05  1.17273e-05     -67.2386 
         -50      1.90793 -6.89562e-05  1.16556e-05     -67.2383 
         -50       1.9937 -6.63374e-05   1.1621e-05     -67.2379 
         -50      2.08131 -6.42726e-05   1.1642e-05     -67.2375 
         -50      2.17081 -6.27869e-05  1.17119e-05     -67.2371 
         -50      2.26223 -6.18332e-05   1.1803e-05     -67.2367 
         -50       2.3555  -6.1314e-05  1.18708e-05     -67.2362 
         -50      2.45065  -6.1105e-05  1.18606e-05     -67.2357 
         -50      2.54769 -6.10826e-05   1.1714e-05     -67.2352 
         -50      2.64665 -6.11491e-05  1.13765e-05     -67.2346 
         -50      2.74746 -6.12538e-05  1.08063e-05      -67.234 
         -50      2.85014 -6.14079e-05  9.98089e-06     -67.2334 
         -50      2.95472 -6.16872e-05  8.90464e-06     -67.2328 
         -50      3.06122 -6.22181e-05  7.61366e-06     -67.2321 
         -50      3.16956 -6.31399e-05  6.18074e-06     -67.2313 
         -50      3.27979 -6.45393e-05  4.71159e-06     -67.2306 
         -50       3.3919 -6.63435e-05  3.34119e-06     -67.2298 
         -50      3.50594  -6.8167e-05  2.22081e-06     -67.2289 
         -50      3.62181 -6.90945e-05  1.49933e-06      -67.228 
         -50      3.73958 -6.73987e-05  1.28973e-06     -67.2271 
         -50      3.85927 -6.85012e-05  7.24005e-07     -67.2261 
         -50       3.9808 -7.01049e-05  5.90345e-08     -67.2251 
         -50      4.10422 -7.14167e-05 -6.37708e-07      -67.224 
         -50      4.22952 -7.26058e-05 -1.02871e-06     -67.2228 
         -50      4.35675 -7.36927e-05  -1.3613e-06     -67.2217 
         -50      4.48582 -7.46425e-05 -1.74666e-06     -67.2204 
         -50      4.61677  -7.5415e-05  -2.2117e-06     -67.2192 
         -50      4.74961 -7.60004e-05 -2.74396e-06     -67.2178 
         -50      4.88438 -7.64433e-05 -3.32719e-06     -67.2164 
         -50      5.02099 -7.68439e-05 -3.95981e-06      -67.215 
         -50      5.15948 -7.73329e-05 -4.65347e-06     -67.2134 
         -50      5.29985 -7.80078e-05 -5.39976e-06     -67.2119 
         -50      5.44217 -7.88253e-05 -6.10026e-06     -67.2102 
         -50      5.58631 -7.94353e-05 -6.44727e-06     -67.2085 
         -50      5.73233 -7.99558e-05 -6.92922e-06     -67.2067 
         -50      5.88024 -8.07122e-05 -7.33065e-06     -67.2049 
         -50       6.0301 -8.14587e-05 -7.75248e-06      -67.203 
         -50      6.18178 -8.22267e-05 -8.30577e-06      -67.201 
         -50      6.33534 -8.29843e-05 -8.60172e-06      -67.199 
         -50      6.49085  -8.3707e-05 -8.44103e-06     -67.1968 
         -50      6.64818 -8.44776e-05 -8.94925e-06     -67.1946 
         -50      6.80739  -8.4799e-05 -1.04392e-05     -67.1923 
         -50      6.96849 -8.43159e-05 -1.03942e-05       -67.19 
         -50      7.13154 -8.39369e-05 -1.08571e-05     -67.1875 
         -50      7.29641  -8.3769e-05 -1.13577e-05      -67.185 
         -50      7.46316  -8.3854e-05 -1.16473e-05     -67.1824 
         -50       7.6318 -8.41117e-05  -1.1696e-05     -67.1797 
         -50      7.80239 -8.42952e-05 -1.16848e-05     -67.1769 
         -50      7.97479 -8.39618e-05 -1.19925e-05     -67.1741 
         -50      8.14908 -8.38798e-05 -1.21351e-05     -67.1711 
         -50      8.32526 -8.47795e-05  -1.2057e-05      -67.168 
         -50      8.50338 -8.54809e-05 -1.22895e-05     -67.1649 
         -50      8.68333 -8.59478e-05 -1.27225e-05     -67.1616 
         -50      8.86515 -8.62685e-05 -1.34825e-05     -67.1583 
         -50      9.04894 -8.65406e-05 -1.46127e-05     -67.1548 
         -50      9.23453 -8.67071e-05 -1.55168e-05     -67.1513 
         -50      9.42201 -8.56774e-05 -1.53146e-05     -67.1476 
         -50      9.61137 -8.46838e-05 -1.55971e-05     -67.1439 
         -50      9.80269 -8.47763e-05 -1.58897e-05       -67.14 
         -50      9.99583 -8.51765e-05 -1.63124e-05      -67.136 
         -50      10.1908 -8.55078e-05 -1.68497e-05     -67.1319 
         -50      10.3877 -8.56696e-05  -1.7412e-05     -67.1277 
         -50      10.5866 -8.57203e-05 -1.78904e-05     -67.1234 
         -50      10.7873 -8.57762e-05  -1.8201e-05      -67.119 
         -50      10.9898 -8.59292e-05 -1.83171e-05     -67.1145 
         -50      11.1943 -8.61912e-05 -1.82829e-05     -67.1098 
         -50      11.4007 -8.64718e-05 -1.82077e-05      -67.105 
         -50      11.6089 -8.65949e-05 -1.82346e-05     -67.1001 
         -50       11.819 -8.63662e-05 -1.84799e-05     -67.0951 
         -50       12.031 -8.56954e-05 -1.89378e-05     -67.0899 
         -50      12.2449  -8.4789e-05 -1.93437e-05     -67.0846 
         -50      12.4606 -8.44172e-05 -1.89937e-05     -67.0792 
         -50      12.6782 -8.64781e-05 -1.79011e-05     -67.0737 
         -50      12.8978 -8.65688e-05 -1.87139e-05      -67.068 
         -50      13.1192 -8.49654e-05 -1.91882e-05     -67.0622 
         -50      13.3425 -8.40261e-05 -1.97899e-05     -67.0563 
         -50      13.5677 -8.37018e-05 -2.05254e-05     -67.0502 
         -50      13.7948 -8.37722e-05 -2.13014e-05      -67.044 
         -50      14.0237 -8.40227e-05 -2.20243e-05     -67.0377 
         -50      14.2546 -8.42675e-05 -2.26265e-05     -67.0312 
         -50      14.4873  -8.4369e-05  -2.3082e-05     -67.0246 
         -50      14.7219 -8.42507e-05  -2.3415e-05     -67.0178 
         -50      14.9584 -8.39041e-05 -2.36962e-05     -67.0109 
         -50      15.1968 -8.33878e-05  -2.4028e-05     -67.0038 
         -50      15.4371 -8.28164e-05 -2.45137e-05     -66.9966 
         -50      15.6792 -8.23403e-05 -2.52087e-05     -66.9893 
         -50      15.9232 -8.21111e-05 -2.60543e-05     -66.9818 
         -50      16.1691 -8.22341e-05 -2.67875e-05     -66.9741 
         -50       16.417 -8.27049e-05 -2.68266e-05     -66.9663 
         -50      16.6666 -8.33269e-05 -2.51279e-05     -66.9583 
         -50      16.9182 -8.26644e-05 -2.68174e-05     -66.9502 
         -50      17.1716 -8.22132e-05 -2.74733e-05      -66.942 
         -50       17.427 -8.17997e-05 -2.72698e-05     -66.9336 
         -50      17.6842 -8.12993e-05 -2.67901e-05      -66.925 
         -50      17.9433 -8.07376e-05 -2.63763e-05     -66.9163 
         -50      18.2042 -8.02183e-05 -2.61863e-05     -66.9074 
         -50      18.4672 -7.98583e-05 -2.62493e-05     -66.8983 
         -50      18.7319 -7.97354e-05 -2.65149e-05     -66.8891 
         -50      18.9985 -7.98473e-05 -2.68994e-05     -66.8798 
         -50       19.267 -8.00875e-05  -2.7323e-05     -66.8702 
         -50      19.5375 -8.02403e-05   -2.774e-05     -66.8606 
         -50      19.8098 -7.99958e-05 -2.81581e-05     -66.8507 
         -50       20.084 -7.89921e-05 -2.86466e-05     -66.8407 
         -50      20.3601 -7.74879e-05 -2.93151e-05     -66.8305 
         -50       20.638 -7.72891e-05 -2.94181e-05     -66.8202 
         -50      20.9178 -7.77032e-05 -2.88079e-05     -66.8097 
         -50      21.1995 -7.86333e-05 -2.86031e-05      -66.799 
         -50      21.4832 -7.89702e-05 -3.00526e-05     -66.7882 
         -50      21.7687 -7.65474e-05 -3.02499e-05     -66.7772 
         -50       22.056 -7.41184e-05 -2.92845e-05     -66.7661 
         -50      22.3452  -7.4555e-05 -2.99724e-05     -66.7548 
         -50      22.6365 -7.51624e-05 -3.07219e-05     -66.7433 
         -50      22.9295 -7.57051e-05 -3.13848e-05     -66.7316 
         -50      23.2243 -7.59668e-05 -3.19759e-05     -66.7198 
         -50      23.5211 -7.58004e-05 -3.25575e-05     -66.7078 
         -50      23.8199  -7.5171e-05 -3.31581e-05     -66.6957 
         -50      24.1204 -7.41908e-05 -3.37306e-05     -66.6834 
         -50      24.4228 -7.31407e-05 -3.41581e-05     -66.6709 
         -50      24.7272 -7.24823e-05 -3.43097e-05     -66.6583 
         -50      25.0334 -7.28553e-05 -3.41564e-05     -66.6455 
         -50      25.3415 -7.50562e-05 -3.39536e-05     -66.6325 
         -50      25.6514 -7.39825e-05 -3.55215e-05     -66.6194 
         -50      25.9634 -7.20221e-05  -3.6735e-05     -66.6061 
         -50      26.2771 -7.14876e-05 -3.66336e-05     -66.5927 
         -50      26.5927 -7.17069e-05 -3.58986e-05     -66.5791 
         -50      26.9102 -7.19553e-05 -3.54536e-05     -66.5653 
         -50      27.2297  -7.1499e-05 -3.55569e-05     -66.5514 
         -50       27.551 -6.97621e-05 -3.45877e-05     -66.5373 
         -50      27.8741 -7.01927e-05 -3.53932e-05     -66.5231 
         -50      28.1991 -7.00329e-05 -3.60841e-05     -66.5086 
         -50      28.5262 -6.95502e-05 -3.66122e-05     -66.4941 
         -50       28.855 -6.89401e-05 -3.69597e-05     -66.4794 
         -50      29.1856 -6.83343e-05  -3.7133e-05     -66.4645 
         -50      29.5183 -6.78112e-05 -3.71555e-05     -66.4495 
         -50      29.8528 -6.74057e-05 -3.70623e-05     -66.4343 
         -50      30.1891 -6.71181e-05  -3.6894e-05      -66.419 
         -50      30.5273 -6.69231e-05 -3.66927e-05     -66.4035 
         -50      30.8676 -6.67793e-05 -3.64975e-05     -66.3879 
         -50      31.2096 -6.66365e-05 -3.63414e-05     -66.3721 
         -50      31.5534 -6.64441e-05 -3.62493e-05     -66.3562 
         -50      31.8992 -6.61572e-05 -3.62373e-05     -66.3401 
         -50      32.2469 -6.57428e-05 -3.63125e-05     -66.3239 
         -50      32.5965 -6.51853e-05 -3.64752e-05     -66.3075 
         -50      32.9479  -6.4489e-05 -3.67224e-05      -66.291 
         -50      33.3012  -6.3681e-05  -3.7053e-05     -66.2744 
         -50      33.6565 -6.28116e-05 -3.74753e-05     -66.2576 
         -50      34.0135 -6.19547e-05 -3.80154e-05     -66.2407 
         -50      34.3725 -6.12027e-05 -3.87304e-05     -66.2237 
         -50      34.7334 -6.06628e-05 -3.97225e-05     -66.2065 
         -50      35.0962  -6.1452e-05 -3.90749e-05     -66.1892 
         -50      35.4608 -6.26464e-05 -3.65242e-05     -66.1718 
         -50      35.8272 -6.22915e-05 -3.62853e-05     -66.1542 
         -50      36.1957 -6.10415e-05  -3.6548e-05     -66.1365 
         -50       36.566 -5.95837e-05 -3.67667e-05     -66.1187 
         -50      36.9381  -5.8716e-05 -3.69515e-05     -66.1008 
         -50      37.3121 -5.90477e-05 -3.71523e-05     -66.0827 
         -50      37.6882 -5.92772e-05 -3.74293e-05     -66.0645 
         -50       38.066 -5.93099e-05 -3.77205e-05     -66.0462 
         -50      38.4456 -5.91175e-05 -3.79813e-05     -66.0278 
         -50      38.8272 -5.87197e-05 -3.81801e-05     -66.0093 
         -50      39.2108  -5.8168e-05 -3.82951e-05     -65.9907 
         -50      39.5961 -5.75309e-05 -3.83123e-05     -65.9719 
         -50      39.9833 -5.68799e-05 -3.82242e-05     -65.9531 
         -50      40.3724 -5.62783e-05 -3.80283e-05     -65.9341 
         -50      40.7635 -5.57723e-05 -3.77281e-05     -65.9151 
         -50      41.1564 -5.53846e-05 -3.73342e-05     -65.8959 
         -50      41.5511 -5.51095e-05 -3.68667e-05     -65.8767 
         -50      41.9479 -5.49131e-05 -3.63586e-05     -65.8573 
         -50      42.3464 -5.47361e-05 -3.58624e-05     -65.8379 
         -50      42.7468 -5.44999e-05 -3.54551e-05     -65.8183 
         -50      43.1491 -5.41177e-05 -3.52475e-05     -65.7987 
         -50      43.5534 -5.35097e-05 -3.53944e-05      -65.779 
         -50      43.9595 -5.26241e-05 -3.61064e-05     -65.7592 
         -50      44.3674  -5.1918e-05 -3.70139e-05     -65.7393 
         -50      44.7772  -5.2029e-05 -3.68068e-05     -65.7194 
         -50      45.1891 -5.18753e-05 -3.67398e-05     -65.6993 
         -50      45.6027 -5.16263e-05 -3.66909e-05     -65.6792 
         -50      46.0181 -5.14193e-05 -3.65849e-05     -65.6591 
         -50      46.4355 -5.13157e-05 -3.64123e-05     -65.6388 
         -50      46.8549 -5.12516e-05 -3.62457e-05     -65.6185 
         -50       47.276 -5.09804e-05 -3.62564e-05     -65.5981 
         -50       47.699 -4.99039e-05 -3.66021e-05     -65.5777 
         -50      48.1241 -4.91122e-05 -3.66077e-05     -65.5571 
         -50      48.5508 -4.85591e-05 -3.63881e-05     -65.5366 
         -50      48.9795 -4.81754e-05 -3.60492e-05     -65.5159 
         -50        49.41 -4.78988e-05 -3.56767e-05     -65.4953 
         -50      49.8426 -4.76755e-05 -3.53367e-05     -65.4745 
         -50      50.2769 -4.74632e-05  -3.5077e-05     -65.4538 
         -50      50.7131  -4.7231e-05 -3.49276e-05     -65.4329 
         -50      51.1512 -4.69611e-05 -3.49011e-05     -65.4121 
         -50      51.5914 -4.66478e-05 -3.49932e-05     -65.3911 
         -50      52.0332 -4.62965e-05 -3.51818e-05     -65.3702 
         -50      52.4769 -4.59213e-05 -3.54274e-05     -65.3492 
         -50      52.9225 -4.55415e-05 -3.56715e-05     -65.3282 
         -50      53.3702 -4.51769e-05 -3.58361e-05     -65.3071 
         -50      53.8196 -4.48427e-05  -3.5821e-05      -65.286 
         -50      54.2709  -4.4541e-05 -3.55025e-05     -65.2649 
         -50      54.7242 -4.42529e-05 -3.47302e-05     -65.2438 
         -50      55.1792 -4.38844e-05   -3.486e-05     -65.2226 
         -50      55.6362 -4.35758e-05 -3.50036e-05     -65.2014 
         -50       56.095 -4.33126e-05 -3.48809e-05     -65.1802 
         -50      56.5558 -4.30626e-05 -3.46059e-05      -65.159 
         -50      57.0184 -4.28079e-05 -3.42617e-05     -65.1378 
         -50      57.4829 -4.25414e-05  -3.3905e-05     -65.1166 
         -50      57.9492 -4.22635e-05 -3.35716e-05     -65.0953 
         -50      58.4176  -4.1979e-05 -3.32815e-05     -65.0741 
         -50      58.8877 -4.16946e-05 -3.30428e-05     -65.0528 
         -50      59.3597  -4.1416e-05 -3.28555e-05     -65.0316 
         -50      59.8336 -4.11458e-05 -3.27147e-05     -65.0103 
         -50      60.3096 -4.08818e-05 -3.26134e-05      -64.989 
         -50      60.7872 -4.06155e-05 -3.25441e-05     -64.9678 
         -50      61.2667 -4.03311e-05 -3.24997e-05     -64.9466 
         -50      61.7484 -4.00048e-05 -3.24737e-05     -64.9253 
         -50      62.2317 -3.96054e-05 -3.24601e-05     -64.9041 
         -50      62.7168 -3.90939e-05 -3.24506e-05     -64.8829 
         -50      63.2039 -3.84257e-05 -3.24325e-05     -64.8617 
         -50      63.6931 -3.75512e-05 -3.23847e-05     -64.8406 
         -50      64.1839 -3.76174e-05  -3.2005e-05     -64.8194 
         -50      64.6766 -3.79149e-05 -3.15254e-05     -64.7983 
         -50      65.1712  -3.8076e-05 -3.11441e-05     -64.7772 
         -50      65.6679   -3.806e-05 -3.09616e-05     -64.7561 
         -50      66.1663 -3.77911e-05 -3.10422e-05     -64.7351 
         -50      66.6665 -3.72134e-05  -3.1304e-05     -64.7141 
         -50      67.1687 -3.69381e-05 -3.11046e-05     -64.6931 
         -50      67.6729 -3.66137e-05 -3.08997e-05     -64.6722 
         -50      68.1788  -3.6309e-05 -3.06813e-05     -64.6513 
         -50      68.6866 -3.60668e-05 -3.04337e-05     -64.6305 
         -50      69.1963 -3.59174e-05 -3.01342e-05     -64.6097 
         -50      69.7081  -3.5892e-05  -2.9754e-05     -64.5889 
         -50      70.2215 -3.55377e-05 -3.01147e-05     -64.5682 
         -50      70.7368 -3.52025e-05   -3.035e-05     -64.5475 
         -50      71.2543 -3.49107e-05 -3.04031e-05     -64.5269 
         -50      71.7734 -3.46441e-05 -3.03072e-05     -64.5064 
         -50      72.2943 -3.43857e-05 -3.00968e-05     -64.4859 
         -50      72.8172  -3.4122e-05 -2.98055e-05     -64.4654 
         -50      73.3422 -3.38436e-05 -2.94645e-05     -64.4451 
         -50      73.8688 -3.35465e-05 -2.91016e-05     -64.4247 
         -50      74.3973 -3.32318e-05 -2.87394e-05     -64.4045 
         -50      74.9277 -3.29058e-05 -2.83945e-05     -64.3843 
         -50      75.4602 -3.25793e-05 -2.80773e-05     -64.3642 
         -50      75.9944 -3.22666e-05 -2.77912e-05     -64.3441 
         -50      76.5305 -3.19835e-05 -2.75331e-05     -64.3242 
         -50      77.0684 -3.17448e-05 -2.72932e-05     -64.3043 
         -50      77.6084 -3.15617e-05 -2.70564e-05     -64.2844 
         -50      78.1502 -3.14376e-05 -2.68033e-05     -64.2647 
         -50      78.6937  -3.1364e-05 -2.65118e-05      -64.245 
         -50      79.2394 -3.13157e-05 -2.61728e-05     -64.2254 
         -50      79.7868 -3.11947e-05 -2.61801e-05     -64.2059 
         -50      80.3361 -3.09504e-05 -2.60846e-05     -64.1865 
         -50      80.8872 -3.06587e-05 -2.59154e-05     -64.1672 
         -50      81.4404 -3.03716e-05 -2.56989e-05     -64.1479 
         -50      81.9953 -3.01209e-05 -2.54584e-05     -64.1288 
         -50      82.5521 -2.99202e-05  -2.5213e-05     -64.1097 
         -50      83.1108 -2.97682e-05 -2.49768e-05     -64.0908 
         -50      83.6715 -2.96521e-05 -2.47578e-05     -64.0719 
         -50       84.234 -2.95514e-05 -2.45574e-05     -64.0532 
         -50      84.7983 -2.94409e-05 -2.43678e-05     -64.0345 
         -50      85.3645 -2.92951e-05 -2.41719e-05     -64.0159 
         -50      85.9328 -2.90927e-05 -2.39403e-05     -63.9975 
         -50      86.5028 -2.88203e-05 -2.36308e-05     -63.9791 
         -50      87.0747 -2.84777e-05 -2.31853e-05     -63.9609 
         -50      87.6486 -2.80823e-05 -2.25275e-05     -63.9428 
         -50      88.2243 -2.79683e-05 -2.22996e-05     -63.9247 
         -50      88.8018   -2.801e-05 -2.24136e-05     -63.9068 
         -50      89.3812 -2.79692e-05 -2.23927e-05      -63.889 
         -50      89.9627 -2.78573e-05 -2.22775e-05     -63.8713 
         -50      90.5458 -2.76903e-05 -2.21028e-05     -63.8538 
         -50      91.1309 -2.74871e-05 -2.18973e-05     -63.8363 
         -50      91.7178 -2.72679e-05 -2.16832e-05      -63.819 
         -50      92.3069 -2.70519e-05 -2.14753e-05     -63.8018 
         -50      92.8976 -2.68558e-05 -2.12807e-05     -63.7848 
         -50      93.4901 -2.66909e-05 -2.10971e-05     -63.7678 
         -50      94.0846 -2.65616e-05 -2.09125e-05      -63.751 
         -50      94.6812 -2.64628e-05 -2.07038e-05     -63.7343 
         -50      95.2794 -2.63775e-05 -2.04353e-05     -63.7178 
         -50      95.8796 -2.62519e-05 -2.01298e-05     -63.7013 
         -50      96.4818  -2.6074e-05 -1.98454e-05     -63.6851 
         -50      97.0857 -2.58757e-05 -1.95663e-05     -63.6689 
         -50      97.6915 -2.56765e-05 -1.92863e-05     -63.6529 
         -50      98.2991 -2.54894e-05 -1.90031e-05      -63.637 
         -50      98.9089 -2.53215e-05 -1.87168e-05     -63.6213 
         -50      99.5203 -2.51755e-05 -1.84296e-05     -63.6057 
         -50      100.134 -2.50507e-05  -1.8144e-05     -63.5903 
         -50      100.749  -2.4944e-05 -1.78631e-05      -63.575 
         -50      101.366 -2.48507e-05 -1.75891e-05     -63.5598 
         -50      101.985 -2.47656e-05 -1.73242e-05     -63.5448 
         -50      102.606 -2.46836e-05 -1.70687e-05       -63.53 
         -50      103.229 -2.46003e-05 -1.68223e-05     -63.5153 
         -50      103.854 -2.45122e-05 -1.65833e-05     -63.5007 
         -50       104.48 -2.44178e-05 -1.63495e-05     -63.4864 
         -50      105.108 -2.43172e-05 -1.61184e-05     -63.4721 
         -50      105.739 -2.42123e-05 -1.58875e-05     -63.4581 
         -50      106.371 -2.41068e-05 -1.56559e-05     -63.4441 
         -50      107.005 -2.40059e-05 -1.54253e-05     -63.4304 
         -50      107.641 -2.39159e-05 -1.52009e-05     -63.4168 
         -50      108.279 -2.38436e-05 -1.49935e-05     -63.4034 
         -50      108.919 -2.37955e-05 -1.48217e-05     -63.3902 
         -50       109.56 -2.37318e-05  -1.4719e-05     -63.3771 
         -50      110.204 -2.34283e-05 -1.46337e-05     -63.3642 
         -50      110.849 -2.31579e-05 -1.44688e-05     -63.3514 
         -50      111.497 -2.29086e-05 -1.42448e-05     -63.3389 
         -50      112.146 -2.26788e-05 -1.39784e-05     -63.3265 
         -50      112.797 -2.24796e-05 -1.36833e-05     -63.3143 
         -50       113.45 -2.23366e-05 -1.33699e-05     -63.3022 
         -50      114.105 -2.22918e-05 -1.30461e-05     -63.2904 
         -50      114.761 -2.23885e-05 -1.28168e-05     -63.2787 
         -50       115.42 -2.24716e-05 -1.26881e-05     -63.2672 
         -50      116.081 -2.25064e-05 -1.25227e-05     -63.2559 
         -50      116.743 -2.25076e-05 -1.23299e-05     -63.2447 
         -50      117.407 -2.24844e-05 -1.21158e-05     -63.2338 
         -50      118.073 -2.24415e-05 -1.18847e-05      -63.223 
         -50      118.741 -2.23814e-05 -1.16397e-05     -63.2125 
         -50      119.411 -2.23057e-05 -1.13828e-05     -63.2021 
         -50      120.083 -2.22158e-05 -1.11154e-05      -63.192 
         -50      120.757 -2.21145e-05 -1.08387e-05      -63.182 
         -50      121.432 -2.20059e-05 -1.05546e-05     -63.1723 
         -50       122.11 -2.18959e-05 -1.02647e-05     -63.1627 
         -50      122.789 -2.17921e-05 -9.97143e-06     -63.1534 
         -50       123.47  -2.1703e-05  -9.6773e-06     -63.1442 
         -50      124.153 -2.16378e-05 -9.38571e-06     -63.1352 
         -50      124.838 -2.16043e-05 -9.09987e-06     -63.1264 
         -50      125.525 -2.16075e-05 -8.82296e-06     -63.1179 
         -50      126.214 -2.16478e-05 -8.55752e-06     -63.1095 
         -50      126.905 -2.17176e-05 -8.30535e-06     -63.1013 
         -50      127.597 -2.17987e-05 -8.06613e-06     -63.0933 
         -50      128.292 -2.18585e-05   -7.837e-06     -63.0856 
         -50      128.988 -2.18456e-05 -7.61185e-06     -63.0781 
         -50      129.686 -2.16849e-05 -7.37963e-06     -63.0709 
         -50      130.386 -2.12726e-05 -7.12351e-06      -63.064 
         -50      131.088 -2.04693e-05 -6.81916e-06     -63.0575 
         -50      131.792 -1.90947e-05 -6.43371e-06     -63.0513 
         -50      132.497 -2.04405e-05  -6.4151e-06      -63.045 
         -50      133.205 -2.20261e-05 -6.47136e-06     -63.0386 
         -50      133.915 -2.28185e-05  -6.4433e-06     -63.0324 
         -50      134.626 -2.30518e-05    -6.34e-06     -63.0265 
         -50      135.339 -2.29149e-05 -6.16664e-06     -63.0207 
         -50      136.054  -2.1391e-05 -5.78086e-06     -63.0152 
         -50      136.771 -1.96216e-05 -5.33283e-06     -63.0099 
         -50       137.49 -1.89574e-05 -4.94705e-06     -63.0049 
         -50      138.211 -1.92865e-05 -4.60213e-06     -63.0003 
         -50      138.934 -2.02565e-05 -4.28176e-06     -62.9959 
         -50      139.658 -2.14187e-05 -3.97487e-06     -62.9919 
         -50      140.385 -2.23498e-05 -3.67456e-06     -62.9881 
         -50      141.113 -2.27403e-05 -3.37813e-06     -62.9846 
         -50      141.843 -2.24536e-05 -3.08611e-06     -62.9814 
         -50      142.575 -2.15526e-05 -2.80194e-06     -62.9785 
         -50      143.309   -2.029e-05 -2.53008e-06     -62.9757 
         -50      144.045 -1.90633e-05 -2.27523e-06     -62.9733 
         -50      144.783 -1.83302e-05 -2.04058e-06     -62.9711 
         -50      145.523 -1.84847e-05 -1.82637e-06     -62.9691 
         -50      146.264 -1.96877e-05 -1.62735e-06     -62.9674 
         -50      147.007 -2.16558e-05 -1.43081e-06     -62.9659 
         -50      147.753 -2.34019e-05 -1.21388e-06     -62.9647 
         -50        148.5 -2.29234e-05  -9.4098e-07     -62.9638 
         -50      149.249 -1.68468e-05 -5.60229e-07     -62.9632 
         -50          150 -4.49169e-19  -1.2458e-20     -62.9629 
         -25            0 -8.80821e-20 -8.95883e-24     -64.5503 
         -25     0.000942 -1.64736e-05 -1.71428e-09     -64.5503 
         -25     0.003768 -5.08139e-05 -5.62803e-09     -64.5503 
         -25     0.008478 -7.33789e-05 -8.65809e-09     -64.5503 
         -25     0.015075 -7.09955e-05 -7.23047e-09     -64.5503 
         -25     0.023553 -5.97643e-05   1.5912e-09     -64.5503 
         -25     0.033916 -6.11555e-05  1.99602e-08     -64.5503 
         -25     0.046163 -6.82691e-05  4.97575e-08     -64.5503 
         -25       0.0603 -6.27139e-05  9.26923e-08     -64.5503 
         -25     0.076315 -6.99799e-05  1.50499e-07     -64.5503 
         -25     0.094215 -6.72587e-05  2.25851e-07     -64.5503 
         -25     0.113999 -6.86304e-05  3.16347e-07     -64.5503 
         -25     0.135675 -6.89697e-05  4.22632e-07     -64.5503 
         -25     0.159228 -6.99005e-05  5.43183e-07     -64.5503 
         -25     0.184664  -7.0586e-05  6.76529e-07     -64.5503 
         -25     0.211985 -7.07261e-05   8.2212e-07     -64.5503 
         -25     0.241201 -7.13258e-05  9.79739e-07     -64.5503 
         -25      0.27229 -7.12225e-05  1.14942e-06     -64.5503 
         -25     0.305263 -7.11636e-05   1.3349e-06     -64.5503 
         -25     0.340135 -7.08802e-05  1.53586e-06     -64.5503 
         -25     0.376877   -7.042e-05  1.74901e-06     -64.5502 
         -25     0.415503 -6.97692e-05  1.96941e-06     -64.5502 
         -25     0.456013 -6.88861e-05  2.19265e-06     -64.5502 
         -25     0.498424 -6.77408e-05  2.41904e-06     -64.5502 
         -25     0.542703 -6.63424e-05  2.65854e-06     -64.5502 
         -25     0.588866 -6.47057e-05  2.93787e-06     -64.5502 
         -25     0.636912 -6.28188e-05  3.29736e-06     -64.5501 
         -25     0.686864 -6.07247e-05  3.67655e-06     -64.5501 
         -25     0.738679 -5.84899e-05  4.06952e-06     -64.5501 
         -25     0.792379 -5.62229e-05  4.48317e-06       -64.55 
         -25     0.847962 -5.40373e-05  4.91605e-06       -64.55 
         -25     0.905453 -5.20412e-05  5.36066e-06       -64.55 
         -25     0.964806 -5.03302e-05  5.80555e-06     -64.5499 
         -25      1.02604 -4.89727e-05  6.23992e-06     -64.5499 
         -25      1.08919 -4.80033e-05   6.6565e-06     -64.5498 
         -25      1.15419 -4.74161e-05   7.0537e-06     -64.5498 
         -25      1.22108 -4.71605e-05  7.43719e-06     -64.5497 
         -25      1.28985 -4.71475e-05  7.81601e-06     -64.5496 
         -25      1.36054 -4.72663e-05  8.19382e-06     -64.5495 
         -25      1.43308 -4.74159e-05  8.55052e-06     -64.5495 
         -25      1.50751 -4.75515e-05  8.81755e-06     -64.5494 
         -25      1.58382 -4.75077e-05  9.19019e-06     -64.5493 
         -25      1.66204 -4.79274e-05  9.42516e-06     -64.5492 
         -25      1.74212 -4.85242e-05  9.59292e-06     -64.5491 
         -25      1.82409 -4.90567e-05  9.75279e-06     -64.5489 
         -25      1.90793 -4.93332e-05  9.95105e-06     -64.5488 
         -25       1.9937 -4.92156e-05  1.02201e-05     -64.5487 
         -25      2.08131  -4.8622e-05  1.05775e-05     -64.5485 
         -25      2.17081 -4.75263e-05  1.10262e-05     -64.5484 
         -25      2.26223 -4.59555e-05  1.15556e-05     -64.5482 
         -25       2.3555  -4.3988e-05  1.21411e-05      -64.548 
         -25      2.45065 -4.17427e-05  1.27478e-05     -64.5478 
         -25      2.54769 -3.93724e-05  1.33323e-05     -64.5477 