Variables = x, y, u, v, p

Zone, I=416, F=POINT
         -50            0 -1.63079e-20  2.12627e-23      65.9867 
         -50     0.013333 -2.08096e-05   2.7898e-08      65.9867 
         -50     0.053333 -2.24798e-05  1.07122e-07      65.9867 
         -50         0.12   -2.556e-05  4.14052e-07      65.9867 
         -50     0.213332 -3.04166e-05  1.01683e-06      65.9867 
         -50     0.333332 -3.35146e-05  1.61809e-06      65.9866 
         -50         0.48 -3.40575e-05  2.58483e-06      65.9865 
         -50     0.653331 -3.08034e-05  4.08735e-06      65.9863 
         -50     0.853332 -2.33462e-05  5.71645e-06      65.9859 
         -50         1.08 -1.57758e-05  7.49642e-06      65.9855 
         -50      1.33333 -8.28254e-06  8.86414e-06      65.9848 
         -50      1.61333  1.66671e-06  1.00683e-05      65.9839 
         -50         1.92  1.92847e-06  9.83301e-06      65.9827 
         -50      2.25333  -9.3006e-07  8.86359e-06      65.9812 
         -50      2.61333 -6.83119e-06  5.39871e-06      65.9794 
         -50            3 -1.75581e-05 -1.37236e-06       65.977 
         -25            0           -0           -0      63.3323 
         -25     0.013333 -1.87945e-05  7.66128e-09      63.3323 
         -25     0.053333 -2.73185e-05 -2.98544e-08      63.3323 
         -25         0.12 -3.39632e-05 -2.28416e-07      63.3323 
         -25     0.213332 -3.59116e-05 -8.07199e-07      63.3323 
         -25     0.333332 -3.39275e-05  -1.8844e-06      63.3323 
         -25         0.48 -3.24708e-05 -3.34089e-06      63.3322 
         -25     0.653331 -3.28849e-05 -5.07138e-06      63.3321 
         -25     0.853332 -3.29833e-05 -6.64201e-06       63.332 
         -25         1.08 -3.13341e-05 -8.09251e-06      63.3318 
         -25      1.33333 -2.83244e-05 -9.19596e-06      63.3316 
         -25      1.61333 -2.21201e-05 -9.66556e-06      63.3312 
         -25         1.92 -1.18045e-05 -9.27947e-06      63.3308 
         -25      2.25333  3.65188e-06 -7.36926e-06      63.3302 
         -25      2.61333  1.88673e-05 -4.86317e-06      63.3295 
         -25            3  2.48403e-05 -3.80963e-06      63.3286 
           0            0            0            0      61.1758 
           0     0.013333 -0.000117867  2.98911e-05      61.1778 
           0     0.053333 -2.92988e-05  2.10484e-05      61.1814 
           0         0.12 -2.91136e-06  5.99631e-06      61.1855 
           0     0.213332  6.36805e-06  4.33926e-06      61.1897 
           0     0.333332  1.07267e-05  3.47434e-06      61.1939 
           0         0.48  1.41834e-05  2.93634e-06      61.1981 
           0     0.653331  1.61254e-05  2.70947e-06      61.2021 
           0     0.853332   1.3851e-05  2.53424e-06       61.206 
           0         1.08  7.11747e-06  2.27572e-06      61.2098 
           0      1.33333 -9.11285e-07  1.98342e-06      61.2133 
           0      1.61333  -8.6393e-06  1.72185e-06      61.2166 
           0         1.92 -1.60988e-05  1.41734e-06      61.2196 
           0      2.25333 -2.41337e-05  1.18685e-06      61.2224 
           0      2.61333 -2.53641e-05  2.22204e-06      61.2249 
           0            3 -1.58372e-05  6.36591e-06      61.2271 
          20            0            0            0      59.8018 
          20     0.013333  3.51331e-06 -9.67688e-09      59.8018 
          20     0.053333   4.3682e-05 -1.59665e-07      59.8018 
          20         0.12  8.94403e-05 -4.18191e-07      59.8018 
          20     0.213332  0.000114281 -1.67622e-07      59.8018 
          20     0.333332  0.000109721  1.45471e-06      59.8018 
          20         0.48   8.7468e-05  4.73319e-06      59.8017 
          20     0.653331  6.43546e-05  9.43299e-06      59.8017 
          20     0.853332  4.92817e-05  1.53101e-05      59.8016 
          20         1.08  3.51994e-05  2.16617e-05      59.8016 
          20      1.33333  1.65766e-05  2.74591e-05      59.8014 
          20      1.61333  -3.8729e-06  3.20856e-05      59.8013 
          20         1.92 -2.35412e-05  3.48753e-05      59.8011 
          20      2.25333 -3.90992e-05  3.59024e-05      59.8008 
          20      2.61333 -4.76507e-05   3.5269e-05      59.8005 
          20            3 -4.96126e-05  3.26935e-05      59.8001 
          40            0            0            0      58.4258 
          40     0.013333  1.03751e-05 -2.78996e-08      58.4258 
          40     0.053333  7.04442e-05 -3.71183e-07      58.4258 
          40         0.12  0.000149703 -1.23409e-06      58.4258 
          40     0.213332  0.000216187 -2.07283e-06      58.4258 
          40     0.333332  0.000254819 -1.97666e-06      58.4258 
          40         0.48  0.000273138 -5.91192e-07      58.4258 
          40     0.653331  0.000278671   1.4879e-06      58.4258 
          40     0.853332  0.000262137  2.89478e-06      58.4258 
          40         1.08  0.000217632  3.03097e-06      58.4257 
          40      1.33333   0.00015744  2.29182e-06      58.4257 
          40      1.61333  9.15369e-05  1.35267e-06      58.4256 
          40         1.92  2.58384e-05  1.96064e-07      58.4255 
          40      2.25333 -3.07698e-05 -8.77329e-07      58.4254 
          40      2.61333 -7.07178e-05 -2.06097e-06      58.4253 
          40            3 -9.21018e-05   -4.812e-06      58.4251 
          60            0           -0           -0      57.1172 
          60     0.013333 -2.46081e-05  1.41499e-08      57.1172 
          60     0.053333 -6.19344e-05  1.65413e-07      57.1172 
          60         0.12 -0.000106492  5.11647e-07      57.1172 
          60     0.213332 -0.000135477  5.69195e-07      57.1172 
          60     0.333332 -0.000135858  -5.4367e-07      57.1172 
          60         0.48 -0.000117261 -3.30739e-06      57.1172 
          60     0.653331 -9.55449e-05 -7.47947e-06      57.1172 
          60     0.853332 -7.86123e-05 -1.26194e-05      57.1172 
          60         1.08 -6.76809e-05 -1.85806e-05      57.1171 
          60      1.33333  -5.5209e-05 -2.47531e-05      57.1171 
          60      1.61333 -3.60316e-05 -3.01568e-05      57.1171 
          60         1.92 -1.63344e-05 -3.45332e-05       57.117 
          60      2.25333 -5.60744e-08 -3.68201e-05       57.117 
          60      2.61333  7.44209e-06  -3.7988e-05      57.1169 
          60            3  3.17808e-06 -3.90574e-05      57.1168 
          80            0           -0           -0      55.8487 
          80     0.013333 -3.30994e-05  5.56841e-08      55.8487 
          80     0.053333 -0.000101491  7.42397e-07      55.8487 
          80         0.12 -0.000200584  2.80641e-06      55.8487 
          80     0.213332 -0.000291827  5.87895e-06      55.8487 
          80     0.333332 -0.000343421   8.6077e-06      55.8487 
          80         0.48 -0.000358016  1.01477e-05      55.8487 
          80     0.653331 -0.000347852  1.10081e-05      55.8487 
          80     0.853332 -0.000309831  1.25011e-05      55.8487 
          80         1.08 -0.000247621  1.48229e-05      55.8486 
          80      1.33333   -0.0001814  1.70862e-05      55.8486 
          80      1.61333 -0.000115472  1.86185e-05      55.8486 
          80         1.92 -4.87219e-05  1.92925e-05      55.8486 
          80      2.25333  1.03984e-05  1.94015e-05      55.8485 
          80      2.61333  5.64322e-05  1.88448e-05      55.8485 
          80            3  8.49988e-05  1.73543e-05      55.8484 
         100            0            0            0      54.6056 
         100     0.013333  -2.1889e-05  4.30997e-08      54.6056 
         100     0.053333 -5.85846e-05  5.76028e-07      54.6056 
         100         0.12 -0.000112913  2.18747e-06      54.6056 
         100     0.213332 -0.000160869  4.65627e-06      54.6056 
         100     0.333332 -0.000182388  7.09729e-06      54.6056 
         100         0.48 -0.000181079     9.05e-06      54.6056 
         100     0.653331 -0.000166288  1.09853e-05      54.6056 
         100     0.853332 -0.000136913  1.38333e-05      54.6056 
         100         1.08  -9.7343e-05  1.75952e-05      54.6056 
         100      1.33333 -6.27756e-05  2.13116e-05      54.6056 
         100      1.61333 -3.26171e-05  2.41886e-05      54.6056 
         100         1.92  -2.5751e-06  2.60942e-05      54.6056 
         100      2.25333  2.18239e-05   2.6768e-05      54.6055 
         100      2.61333  3.76145e-05   2.6313e-05      54.6055 
         100            3  4.52883e-05  2.52547e-05      54.6055 
         150            0           -0           -0      51.5574 
         150     0.013333 -1.42033e-06 -3.48785e-08      51.5574 
         150     0.053333  2.83875e-05 -4.85392e-07      51.5574 
         150         0.12  7.87006e-05 -1.92889e-06      51.5574 
         150     0.213332   0.00013083 -4.36948e-06      51.5574 
         150     0.333332  0.000165779 -7.16927e-06      51.5574 
         150         0.48  0.000180191 -9.80477e-06      51.5574 
         150     0.653331  0.000179193 -1.24193e-05      51.5574 
         150     0.853332   0.00016164 -1.56274e-05      51.5574 
         150         1.08  0.000128604 -1.95298e-05      51.5574 
         150      1.33333  9.25915e-05 -2.33921e-05      51.5574 
         150      1.61333  5.85411e-05 -2.64492e-05      51.5574 
         150         1.92  2.40482e-05 -2.84245e-05      51.5574 
         150      2.25333 -6.50185e-06 -2.91866e-05      51.5574 
         150      2.61333  -2.9711e-05 -2.86275e-05      51.5573 
         150            3 -4.34683e-05 -2.67842e-05      51.5573 
         200            0  -2.8832e-20  9.40347e-26      48.5464 
         200     0.013333 -2.80802e-05  1.45496e-08      48.5464 
         200     0.053333 -7.54501e-05  1.64064e-07      48.5464 
         200         0.12  -0.00012947  3.96498e-07      48.5464 
         200     0.213332 -0.000162655  5.15424e-08      48.5464 
         200     0.333332 -0.000164388 -1.71833e-06      48.5464 
         200         0.48 -0.000149223 -5.08542e-06      48.5464 
         200     0.653331 -0.000132973 -9.37821e-06      48.5464 
         200     0.853332 -0.000115167 -1.35543e-05      48.5464 
         200         1.08  -9.0201e-05 -1.69815e-05      48.5464 
         200      1.33333 -6.39771e-05 -1.97348e-05      48.5464 
         200      1.61333  -4.1596e-05 -2.20547e-05      48.5464 
         200         1.92 -2.02873e-05 -2.37725e-05      48.5464 
         200      2.25333 -1.77858e-06 -2.45384e-05      48.5464 
         200      2.61333  9.61301e-06 -2.44888e-05      48.5464 
         200            3  1.24506e-05 -2.35416e-05      48.5464 
         250            0           -0           -0      45.5478 
         250     0.013333   -6.091e-05  2.31853e-08      45.5478 
         250     0.053333 -0.000195861  2.57771e-07      45.5478 
         250         0.12 -0.000359753  5.77282e-07      45.5478 
         250     0.213332 -0.000482994 -2.59527e-07      45.5478 
         250     0.333332  -0.00052794 -4.10165e-06      45.5478 
         250         0.48 -0.000513573  -1.2014e-05      45.5478 
         250     0.653331 -0.000481255 -2.36703e-05      45.5478 
         250     0.853332 -0.000450003 -3.76516e-05      45.5478 
         250         1.08 -0.000406771 -5.20417e-05      45.5478 
         250      1.33333 -0.000338188  -6.5157e-05      45.5478 
         250      1.61333  -0.00025436 -7.63812e-05      45.5478 
         250         1.92 -0.000165502 -8.53147e-05      45.5478 
         250      2.25333 -7.58415e-05  -9.1055e-05      45.5478 
         250      2.61333  6.37639e-06 -9.32091e-05      45.5478 
         250            3  6.97224e-05 -9.18893e-05      45.5478 
         300            0           -0           -0      42.5532 
         300     0.013333  1.28306e-05  8.99372e-08      42.5532 
         300     0.053333  4.68565e-05  1.35892e-06      42.5532 
         300         0.12  2.94318e-05  6.17484e-06      42.5532 
         300     0.213332 -5.93087e-05  1.65556e-05      42.5532 
         300     0.333332 -0.000174454    3.264e-05      42.5532 
         300         0.48 -0.000260312  5.30397e-05      42.5532 
         300     0.653331 -0.000292065  7.64819e-05      42.5532 
         300     0.853332 -0.000270087  0.000102446      42.5532 
         300         1.08 -0.000213324  0.000129978      42.5532 
         300      1.33333 -0.000156886  0.000156785      42.5532 
         300      1.61333 -0.000116136  0.000180366      42.5532 
         300         1.92 -7.78398e-05  0.000199004      42.5532 
         300      2.25333 -3.83541e-05  0.000211254      42.5532 
         300      2.61333 -9.67397e-07   0.00021588      42.5533 
         300            3  2.83117e-05  0.000212594      42.5533 
         350            0           -0           -0        39.56 
         350     0.013333  3.27132e-05 -1.86183e-08        39.56 
         350     0.053333   0.00014541 -2.07763e-07        39.56 
         350         0.12  0.000282618 -4.62958e-07        39.56 
         350     0.213332  0.000382804  2.54718e-07        39.56 
         350     0.333332  0.000413403  3.52526e-06        39.56 
         350         0.48  0.000390152  1.02452e-05        39.56 
         350     0.653331   0.00035032  2.00536e-05        39.56 
         350     0.853332   0.00031471  3.17711e-05        39.56 
         350         1.08  0.000279228  4.40601e-05        39.56 
         350      1.33333  0.000233023  5.57496e-05        39.56 
         350      1.61333  0.000176762  6.61502e-05        39.56 
         350         1.92  0.000117114  7.49089e-05      39.5599 
         350      2.25333  5.55679e-05  8.12551e-05      39.5599 
         350      2.61333 -4.14045e-06  8.47627e-05      39.5599 
         350            3 -5.48068e-05  8.52335e-05      39.5599 
         400            0           -0           -0      36.5665 
         400     0.013333 -4.64184e-05 -4.86565e-08      36.5665 
         400     0.053333 -0.000128177 -7.55126e-07      36.5665 
         400         0.12 -0.000194674  -3.5684e-06      36.5665 
         400     0.213332 -0.000206225 -1.00331e-05      36.5665 
         400     0.333332 -0.000168683 -2.08552e-05      36.5665 
         400         0.48 -0.000116272 -3.58002e-05      36.5665 
         400     0.653331 -8.02825e-05 -5.44162e-05      36.5665 
         400     0.853332 -7.78529e-05 -7.64042e-05      36.5665 
         400         1.08 -0.000102853 -0.000100876      36.5665 
         400      1.33333 -0.000121329 -0.000125545      36.5665 
         400      1.61333 -0.000111932 -0.000147895      36.5665 
         400         1.92 -9.05788e-05 -0.000166759      36.5665 
         400      2.25333  -6.5628e-05 -0.000180729      36.5665 
         400      2.61333 -3.93729e-05 -0.000188845      36.5665 
         400            3 -1.49522e-05 -0.000190609      36.5665 
         450            0  1.27662e-20 -5.77965e-27       33.573 
         450     0.013333  4.86872e-05 -5.81256e-08       33.573 
         450     0.053333  0.000214234 -7.75086e-07       33.573 
         450         0.12  0.000442005 -2.84074e-06       33.573 
         450     0.213332  0.000646161 -5.46696e-06       33.573 
         450     0.333332  0.000756627 -6.35752e-06       33.573 
         450         0.48  0.000771605 -3.61337e-06       33.573 
         450     0.653331  0.000737258  2.70086e-06       33.573 
         450     0.853332  0.000684801  1.08316e-05       33.573 
         450         1.08  0.000610762  1.87676e-05       33.573 
         450      1.33333  0.000514096  2.57876e-05       33.573 
         450      1.61333  0.000410795  3.23434e-05       33.573 
         450         1.92  0.000303363  3.86036e-05       33.573 
         450      2.25333  0.000189251  4.38966e-05       33.573 
         450      2.61333  7.45327e-05  4.78475e-05       33.573 
         450            3 -2.84403e-05  5.02475e-05       33.573 
         500            0            0            0      30.5782 
         500     0.013333 -7.56601e-05 -6.35143e-08      30.5782 
         500     0.053333 -0.000225008 -1.04428e-06      30.5782 
         500         0.12 -0.000346957 -5.29649e-06      30.5782 
         500     0.213332 -0.000358719 -1.58807e-05      30.5782 
         500     0.333332 -0.000270394 -3.45566e-05      30.5782 
         500         0.48 -0.000160208 -6.06543e-05      30.5782 
         500     0.653331 -9.46758e-05 -9.21633e-05      30.5782 
         500     0.853332 -9.02471e-05 -0.000127149      30.5782 
         500         1.08 -0.000118596 -0.000163511      30.5782 
         500      1.33333 -0.000130048 -0.000198311      30.5782 
         500      1.61333  -0.00010668 -0.000229032      30.5782 
         500         1.92 -7.57227e-05 -0.000254843      30.5782 
         500      2.25333 -4.64863e-05 -0.000274172      30.5782 
         500      2.61333 -1.91889e-05 -0.000285621      30.5782 
         500            3   5.1617e-06 -0.000288183      30.5782 
         550            0           -0           -0      27.5828 
         550     0.013333  9.75715e-06  9.90271e-08      27.5828 
         550     0.053333  3.12053e-05  1.49253e-06      27.5828 
         550         0.12 -1.24121e-05   6.7676e-06      27.5828 
         550     0.213332 -0.000139738  1.81224e-05      27.5828 
         550     0.333332 -0.000294674  3.56543e-05      27.5828 
         550         0.48 -0.000407561  5.76329e-05      27.5828 
         550     0.653331 -0.000450066  8.23828e-05      27.5828 
         550     0.853332 -0.000427934  0.000109391      27.5828 
         550         1.08 -0.000358236  0.000138479      27.5828 
         550      1.33333 -0.000273993  0.000168201      27.5828 
         550      1.61333 -0.000208875   0.00019598      27.5828 
         550         1.92 -0.000158761  0.000219884      27.5828 
         550      2.25333 -0.000107766  0.000238665      27.5828 
         550      2.61333 -5.32892e-05  0.000250999      27.5828 
         550            3 -1.76556e-06  0.000255744      27.5829 
         600            0           -0           -0       24.587 
         600     0.013333  2.44579e-05 -5.56426e-08       24.587 
         600     0.053333  0.000126158 -7.60957e-07       24.587 
         600         0.12  0.000276415 -2.94208e-06       24.587 
         600     0.213332  0.000420415 -6.31119e-06       24.587 
         600     0.333332  0.000505746 -9.32561e-06       24.587 
         600         0.48  0.000526172 -1.06433e-05       24.587 
         600     0.653331  0.000512566 -1.04037e-05       24.587 
         600     0.853332  0.000484475 -1.01165e-05       24.587 
         600         1.08   0.00043062 -1.16592e-05       24.587 
         600      1.33333  0.000346029 -1.56337e-05       24.587 
         600      1.61333  0.000259468 -2.06015e-05       24.587 
         600         1.92  0.000188038 -2.50697e-05       24.587 
         600      2.25333  0.000118722 -2.86767e-05       24.587 
         600      2.61333  4.71082e-05 -3.13908e-05       24.587 
         600            3 -2.04292e-05 -3.31231e-05       24.587 
         650            0            0            0      21.5903 
         650     0.013333 -5.59722e-05 -7.72749e-08      21.5903 
         650     0.053333 -0.000149589 -1.23639e-06      21.5903 
         650         0.12 -0.000190807 -6.06805e-06      21.5903 
         650     0.213332 -0.000118035 -1.76195e-05      21.5903 
         650     0.333332  3.41079e-05 -3.71967e-05      21.5903 
         650         0.48  0.000172287 -6.34064e-05      21.5903 
         650     0.653331   0.00023177 -9.36943e-05      21.5903 
         650     0.853332  0.000208932 -0.000126049      21.5903 
         650         1.08  0.000145056 -0.000158677      21.5903 
         650      1.33333  9.91684e-05 -0.000188993      21.5903 
         650      1.61333  9.19269e-05 -0.000215156      21.5903 
         650         1.92  8.79522e-05 -0.000237044      21.5903 
         650      2.25333  7.46363e-05 -0.000254094      21.5903 
         650      2.61333  5.49091e-05 -0.000265173      21.5903 
         650            3  3.31293e-05 -0.000269073      21.5903 
         700            0            0            0      18.5934 
         700     0.013333  2.32049e-05   1.6196e-07      18.5934 
         700     0.053333  5.87386e-05  2.45247e-06      18.5934 
         700         0.12 -2.03972e-05  1.11959e-05      18.5934 
         700     0.213332 -0.000250741   3.0199e-05      18.5934 
         700     0.333332 -0.000536748  5.97624e-05      18.5934 
         700         0.48 -0.000749952  9.68969e-05      18.5934 
         700     0.653331 -0.000833281  0.000138557      18.5934 
         700     0.853332 -0.000795254  0.000183888      18.5934 
         700         1.08 -0.000665246  0.000232931      18.5934 
         700      1.33333  -0.00050463  0.000283413      18.5934 
         700      1.61333 -0.000386869  0.000330864      18.5934 
         700         1.92  -0.00030884  0.000371978      18.5934 
         700      2.25333 -0.000230487  0.000405668      18.5934 
         700      2.61333 -0.000141833  0.000429995      18.5934 
         700            3 -5.37465e-05  0.000442811      18.5934 
         750            0           -0           -0      15.5966 
         750     0.013333  4.13281e-06 -1.37411e-07      15.5966 
         750     0.053333   7.9463e-05 -2.01764e-06      15.5966 
         750         0.12  0.000264961  -8.7897e-06      15.5966 
         750     0.213332  0.000528532 -2.23628e-05      15.5966 
         750     0.333332  0.000762535 -4.14554e-05      15.5966 
         750         0.48  0.000882637 -6.29077e-05      15.5966 
         750     0.653331   0.00088823  -8.4815e-05      15.5966 
         750     0.853332  0.000814862   -0.0001079      15.5966 
         750         1.08  0.000678974 -0.000134014      15.5966 
         750      1.33333  0.000507246 -0.000162843      15.5966 
         750      1.61333    0.0003632 -0.000190927      15.5966 
         750         1.92  0.000269075 -0.000214799      15.5966 
         750      2.25333  0.000184341 -0.000233917      15.5966 
         750      2.61333  9.22825e-05 -0.000247434      15.5966 
         750            3  1.71129e-06 -0.000254267      15.5966 
         800            0            0            0       12.598 
         800     0.013333 -2.98788e-05  1.73057e-07       12.598 
         800     0.053333 -0.000137719  2.56139e-06       12.598 
         800         0.12 -0.000402745  1.13172e-05       12.598 
         800     0.213332 -0.000798507  2.93904e-05       12.598 
         800     0.333332  -0.00118645  5.58696e-05       12.598 
         800         0.48  -0.00143727   8.6952e-05       12.598 
         800     0.653331  -0.00152381  0.000119477       12.598 
         800     0.853332  -0.00148545  0.000153113       12.598 
         800         1.08  -0.00135241  0.000189436       12.598 
         800      1.33333  -0.00115156  0.000228718       12.598 
         800      1.61333 -0.000943382  0.000268012       12.598 
         800         1.92 -0.000769358  0.000303266       12.598 
         800      2.25333 -0.000598233  0.000333033       12.598 
         800      2.61333 -0.000412262  0.000355713       12.598 
         800            3 -0.000219973  0.000369597       12.598 
         850            0           -0           -0      9.59952 
         850     0.013333 -9.75361e-05 -8.71146e-08      9.59952 
         850     0.053333 -0.000301228 -1.37996e-06      9.59952 
         850         0.12 -0.000482341 -6.72275e-06      9.59952 
         850     0.213332  -0.00053239 -1.95691e-05      9.59952 
         850     0.333332 -0.000448275 -4.19554e-05      9.59952 
         850         0.48 -0.000312042 -7.34773e-05      9.59952 
         850     0.653331 -0.000207398 -0.000112381      9.59952 
         850     0.853332 -0.000174469 -0.000157228      9.59952 
         850         1.08  -0.00021288  -0.00020695      9.59952 
         850      1.33333 -0.000280023 -0.000259306      9.59952 
         850      1.61333 -0.000309079 -0.000310278      9.59952 
         850         1.92 -0.000279239 -0.000356461      9.59952 
         850      2.25333 -0.000229482 -0.000396405      9.59952 
         850      2.61333 -0.000179004 -0.000428355      9.59952 
         850            3 -0.000125755 -0.000450269      9.59952 
         900            0           -0           -0      6.60041 
         900     0.013333  -1.5042e-05   1.2818e-08      6.60041 
         900     0.053333 -3.38957e-05  1.92647e-07      6.60041 
         900         0.12 -6.55192e-05  8.51351e-07      6.60041 
         900     0.213332 -9.93796e-05  2.10639e-06      6.60041 
         900     0.333332 -0.000113649  3.52289e-06      6.60041 
         900         0.48 -9.55207e-05  4.32561e-06      6.60041 
         900     0.653331 -5.14282e-05  4.10894e-06      6.60041 
         900     0.853332   4.3628e-06  3.14418e-06      6.60041 
         900         1.08  6.04258e-05   1.7966e-06      6.60041 
         900      1.33333  9.95003e-05 -4.04823e-07      6.60041 
         900      1.61333  0.000103666 -4.39607e-06      6.60041 
         900         1.92  8.51454e-05 -1.02496e-05      6.60041 
         900      2.25333  6.66957e-05 -1.67728e-05      6.60041 
         900      2.61333  5.26532e-05 -2.33723e-05      6.60041 
         900            3  3.75458e-05 -2.98242e-05      6.60041 
         950            0           -0           -0      3.60091 
         950     0.013333 -3.63462e-05 -1.14617e-07      3.60091 
         950     0.053333 -6.69461e-05  -1.7569e-06      3.60091 
         950         0.12  6.11776e-07  -8.2036e-06      3.60091 
         950     0.213332  0.000210143 -2.27669e-05      3.60091 
         950     0.333332  0.000493743 -4.63895e-05      3.60091 
         950         0.48  0.000729168 -7.70205e-05      3.60091 
         950     0.653331  0.000841992 -0.000111596      3.60091 
         950     0.853332  0.000832919 -0.000148302      3.60091 
         950         1.08    0.0007397 -0.000186543      3.60091 
         950      1.33333   0.00061548 -0.000225123      3.60091 
         950      1.61333  0.000512063 -0.000261697      3.60091 
         950         1.92  0.000436525 -0.000294535       3.6009 
         950      2.25333  0.000359376 -0.000322979       3.6009 
         950      2.61333  0.000269111 -0.000345824       3.6009 
         950            3  0.000171447 -0.000361496       3.6009 
        1000            0  4.23588e-20  -1.6581e-24     0.600843 
        1000     0.013333  0.000128418  2.57568e-08     0.600843 
        1000     0.053333  0.000482486  6.34692e-07     0.600843 
        1000         0.12  0.000893196  4.27831e-06     0.600843 
        1000     0.213332   0.00117186  1.59643e-05     0.600843 
        1000     0.333332   0.00122292  4.08334e-05     0.600843 
        1000         0.48    0.0010987  8.05649e-05     0.600844 
        1000     0.653331  0.000933171  0.000133246     0.600844 
        1000     0.853332  0.000829384  0.000194659     0.600845 
        1000         1.08  0.000792945  0.000260021     0.600845 
        1000      1.33333  0.000746433  0.000324487     0.600844 
        1000      1.61333  0.000627023  0.000384379     0.600843 
        1000         1.92  0.000467103  0.000439181     0.600839 
        1000      2.25333   0.00031059  0.000489191     0.600832 
        1000      2.61333   0.00016121  0.000532647     0.600822 
        1000            3  8.21448e-06  0.000566789     0.600808 
