Variables = x, y, u, v, p

Zone, I=416, F=POINT
         -50            0 -1.31519e-19 -3.38752e-23     -93.9145 
         -50     0.013333 -0.000122365 -5.24812e-08     -93.9145 
         -50     0.053333 -0.000113112 -1.11719e-07     -93.9145 
         -50         0.12 -0.000112391 -1.73109e-07     -93.9145 
         -50     0.213332 -0.000116138 -2.58348e-07     -93.9144 
         -50     0.333332 -0.000121485 -7.28985e-07     -93.9143 
         -50         0.48 -0.000125742 -7.64436e-07     -93.9141 
         -50     0.653331 -0.000128485  3.73937e-07     -93.9138 
         -50     0.853332 -0.000130305 -3.21351e-07     -93.9134 
         -50         1.08 -0.000130976 -5.11565e-07     -93.9127 
         -50      1.33333 -0.000129867 -4.55904e-07     -93.9117 
         -50      1.61333 -0.000125422 -3.23956e-07     -93.9105 
         -50         1.92 -0.000122674 -1.05967e-06     -93.9088 
         -50      2.25333 -0.000114691   1.5745e-06     -93.9067 
         -50      2.61333 -0.000100132   7.8888e-06      -93.904 
         -50            3 -9.21416e-05  9.98702e-06     -93.9006 
         -25            0           -0           -0     -90.1359 
         -25     0.013333 -8.98496e-05 -2.25118e-08     -90.1359 
         -25     0.053333 -8.43396e-05 -6.09001e-08     -90.1359 
         -25         0.12 -8.44632e-05 -1.30437e-07     -90.1359 
         -25     0.213332 -8.61491e-05 -2.22557e-07     -90.1358 
         -25     0.333332 -8.74631e-05 -3.76399e-07     -90.1358 
         -25         0.48 -8.82406e-05 -7.74324e-07     -90.1357 
         -25     0.653331 -9.02123e-05 -1.41474e-06     -90.1356 
         -25     0.853332 -9.35297e-05 -2.19677e-06     -90.1354 
         -25         1.08 -9.55246e-05 -3.18154e-06     -90.1352 
         -25      1.33333  -9.4981e-05 -4.26815e-06     -90.1348 
         -25      1.61333 -9.46479e-05 -4.93032e-06     -90.1343 
         -25         1.92 -9.99942e-05  -6.5513e-06     -90.1337 
         -25      2.25333 -9.58467e-05 -5.65482e-06     -90.1329 
         -25      2.61333 -8.70218e-05 -6.25163e-06     -90.1318 
         -25            3 -8.82906e-05 -1.42811e-05     -90.1305 
           0            0            0            0      -87.067 
           0     0.013333 -0.000138194   0.00012044       -87.07 
           0     0.053333 -0.000119184   5.7469e-05     -87.0751 
           0         0.12 -0.000113927  4.48377e-05     -87.0809 
           0     0.213332 -0.000121672  3.45251e-05     -87.0868 
           0     0.333332  -0.00013094   2.9144e-05     -87.0928 
           0         0.48 -0.000134763  2.64736e-05     -87.0987 
           0     0.653331 -0.000131863  2.54231e-05     -87.1045 
           0     0.853332 -0.000122305  2.54755e-05     -87.1101 
           0         1.08 -0.000109449  2.61523e-05     -87.1154 
           0      1.33333 -9.74072e-05  2.69666e-05     -87.1204 
           0      1.61333 -8.69829e-05   2.7406e-05     -87.1251 
           0         1.92 -8.03233e-05  2.71347e-05     -87.1294 
           0      2.25333 -7.89954e-05  2.60049e-05     -87.1334 
           0      2.61333  -7.5102e-05  2.53186e-05     -87.1369 
           0            3 -6.43885e-05  2.46596e-05     -87.1401 
          20            0            0            0     -85.1119 
          20     0.013333 -5.64483e-05 -9.25271e-09     -85.1119 
          20     0.053333 -1.87281e-05  1.11457e-08     -85.1119 
          20         0.12  1.81593e-05  2.60542e-07     -85.1119 
          20     0.213332  4.11204e-05  1.20346e-06     -85.1119 
          20     0.333332   4.7387e-05  3.31031e-06     -85.1118 
          20         0.48   4.4387e-05  6.69693e-06     -85.1118 
          20     0.653331  3.93602e-05  1.11451e-05     -85.1117 
          20     0.853332  3.45592e-05  1.63361e-05     -85.1117 
          20         1.08  2.44563e-05  2.16429e-05     -85.1115 
          20      1.33333  5.91466e-06  2.62291e-05     -85.1114 
          20      1.61333 -1.78757e-05  2.95957e-05     -85.1112 
          20         1.92 -4.53362e-05  3.13635e-05     -85.1109 
          20      2.25333 -6.88752e-05  3.16076e-05     -85.1105 
          20      2.61333 -7.90934e-05  3.14268e-05       -85.11 
          20            3  -7.6377e-05  3.09089e-05     -85.1094 
          40            0            0            0     -83.1539 
          40     0.013333 -5.49372e-05 -4.61845e-09     -83.1539 
          40     0.053333 -2.68281e-05  2.51742e-08     -83.1539 
          40         0.12 -5.53414e-06  3.76089e-07     -83.1539 
          40     0.213332 -9.91512e-07  1.60375e-06     -83.1539 
          40     0.333332 -7.94035e-06  3.99184e-06     -83.1539 
          40         0.48 -1.33466e-05  7.22051e-06     -83.1539 
          40     0.653331 -1.37355e-05  1.05988e-05     -83.1539 
          40     0.853332 -1.70208e-05  1.32974e-05     -83.1538 
          40         1.08  -2.6878e-05  1.50094e-05     -83.1538 
          40      1.33333 -3.72197e-05  1.59349e-05     -83.1537 
          40      1.61333 -4.65228e-05  1.62146e-05     -83.1536 
          40         1.92 -5.67801e-05  1.55683e-05     -83.1535 
          40      2.25333 -6.68312e-05   1.4216e-05     -83.1534 
          40      2.61333 -7.32172e-05  1.22216e-05     -83.1532 
          40            3 -7.45138e-05  9.27616e-06     -83.1529 
          60            0           -0           -0      -81.292 
          60     0.013333 -5.10263e-05  2.37628e-08      -81.292 
          60     0.053333 -2.46294e-05  4.07789e-07      -81.292 
          60         0.12 -1.55222e-05  1.94761e-06      -81.292 
          60     0.213332 -3.05586e-05  5.39091e-06      -81.292 
          60     0.333332 -5.55391e-05   1.0832e-05      -81.292 
          60         0.48  -7.1809e-05  1.78481e-05      -81.292 
          60     0.653331 -7.07162e-05  2.60194e-05      -81.292 
          60     0.853332 -5.69778e-05  3.47417e-05      -81.292 
          60         1.08 -4.71922e-05  4.28185e-05      -81.292 
          60      1.33333 -4.65749e-05   4.9254e-05     -81.2919 
          60      1.61333 -4.67026e-05  5.37504e-05     -81.2919 
          60         1.92 -4.65236e-05  5.58494e-05     -81.2918 
          60      2.25333  -4.5985e-05  5.53667e-05     -81.2917 
          60      2.61333 -4.84322e-05  5.22458e-05     -81.2916 
          60            3 -5.49054e-05  4.73068e-05     -81.2914 
          80            0           -0           -0     -79.4871 
          80     0.013333 -5.24034e-05  1.32342e-08     -79.4871 
          80     0.053333 -3.01579e-05   2.2898e-07     -79.4871 
          80         0.12 -1.74733e-05  1.09236e-06     -79.4871 
          80     0.213332 -1.94841e-05  3.03272e-06     -79.4871 
          80     0.333332 -2.98808e-05  6.15126e-06     -79.4871 
          80         0.48 -3.85924e-05  1.02811e-05     -79.4871 
          80     0.653331 -3.98972e-05  1.52286e-05     -79.4871 
          80     0.853332 -3.51494e-05  2.06612e-05     -79.4871 
          80         1.08 -3.34286e-05   2.5847e-05     -79.4871 
          80      1.33333 -3.84044e-05  3.00671e-05      -79.487 
          80      1.61333   -4.325e-05  3.30533e-05      -79.487 
          80         1.92 -4.52047e-05  3.48409e-05     -79.4869 
          80      2.25333 -4.56344e-05  3.47208e-05     -79.4869 
          80      2.61333 -4.78291e-05  3.32236e-05     -79.4868 
          80            3 -5.09864e-05  3.17018e-05     -79.4867 
         100            0            0            0     -77.7182 
         100     0.013333 -5.85711e-05 -9.34835e-10     -77.7182 
         100     0.053333 -5.02803e-05 -2.68835e-09     -77.7182 
         100         0.12 -4.30288e-05 -2.01563e-08     -77.7182 
         100     0.213332 -3.46489e-05 -9.37579e-08     -77.7182 
         100     0.333332 -2.55514e-05 -2.50851e-07     -77.7182 
         100         0.48 -1.74001e-05 -4.49162e-07     -77.7182 
         100     0.653331 -1.15979e-05 -6.00612e-07     -77.7182 
         100     0.853332 -9.05487e-06 -6.82131e-07     -77.7182 
         100         1.08 -1.18027e-05 -8.24716e-07     -77.7182 
         100      1.33333 -1.95578e-05 -1.14437e-06     -77.7182 
         100      1.61333 -2.85468e-05 -1.56092e-06     -77.7182 
         100         1.92 -3.75761e-05 -1.86749e-06     -77.7181 
         100      2.25333 -4.33569e-05  -2.1736e-06     -77.7181 
         100      2.61333 -4.59134e-05 -2.28814e-06      -77.718 
         100            3 -4.78302e-05 -2.23094e-06      -77.718 
         150            0           -0           -0     -73.3805 
         150     0.013333 -6.77814e-05  2.74496e-08     -73.3805 
         150     0.053333 -9.32135e-05  3.92872e-07     -73.3805 
         150         0.12 -0.000140843  1.60656e-06     -73.3805 
         150     0.213332 -0.000191099  3.72173e-06     -73.3805 
         150     0.333332  -0.00022253  6.12168e-06     -73.3805 
         150         0.48 -0.000229966  8.12035e-06     -73.3805 
         150     0.653331 -0.000221635  9.55703e-06     -73.3805 
         150     0.853332 -0.000204009  1.06946e-05     -73.3805 
         150         1.08 -0.000180252  1.16257e-05     -73.3805 
         150      1.33333 -0.000153461  1.22486e-05     -73.3805 
         150      1.61333 -0.000124356  1.24503e-05     -73.3804 
         150         1.92  -9.2892e-05  1.21484e-05     -73.3804 
         150      2.25333 -6.28993e-05  1.14457e-05     -73.3804 
         150      2.61333 -3.82505e-05  1.02765e-05     -73.3804 
         150            3 -2.21284e-05  8.66004e-06     -73.3804 
         200            0 -1.54558e-19 -1.34515e-25     -69.0958 
         200     0.013333 -9.91144e-05  9.60916e-09     -69.0958 
         200     0.053333 -0.000198733  5.35551e-08     -69.0958 
         200         0.12 -0.000313803 -3.31176e-07     -69.0958 
         200     0.213332 -0.000386685 -2.52663e-06     -69.0958 
         200     0.333332 -0.000400974 -7.96125e-06     -69.0958 
         200         0.48 -0.000384392 -1.69368e-05     -69.0958 
         200     0.653331 -0.000368246 -2.85638e-05     -69.0958 
         200     0.853332 -0.000353791 -4.11184e-05     -69.0958 
         200         1.08 -0.000319992 -5.27269e-05     -69.0958 
         200      1.33333 -0.000264046 -6.23252e-05     -69.0958 
         200      1.61333 -0.000203052 -6.99871e-05     -69.0958 
         200         1.92 -0.000141299 -7.53403e-05     -69.0958 
         200      2.25333 -8.23361e-05 -7.77228e-05     -69.0958 
         200      2.61333 -3.25012e-05 -7.70505e-05     -69.0958 
         200            3  2.45702e-06 -7.35144e-05     -69.0958 
         250            0           -0           -0     -64.8287 
         250     0.013333  -6.3804e-05   5.4063e-09     -64.8287 
         250     0.053333 -7.52086e-05   7.7276e-08     -64.8287 
         250         0.12  -9.6129e-05  3.15468e-07     -64.8287 
         250     0.213332 -0.000116222  7.07451e-07     -64.8287 
         250     0.333332 -0.000126637  1.03567e-06     -64.8287 
         250         0.48 -0.000125208  9.99946e-07     -64.8287 
         250     0.653331 -0.000117152  4.13684e-07     -64.8287 
         250     0.853332 -0.000109519 -8.00486e-07     -64.8287 
         250         1.08 -0.000104958 -2.53233e-06     -64.8287 
         250      1.33333  -9.8648e-05  -4.3946e-06     -64.8287 
         250      1.61333 -8.81077e-05 -6.03589e-06     -64.8287 
         250         1.92 -7.61968e-05  -7.3756e-06     -64.8287 
         250      2.25333 -6.42475e-05 -8.43693e-06     -64.8287 
         250      2.61333 -5.30802e-05 -9.03973e-06     -64.8287 
         250            3 -4.45367e-05 -9.21639e-06     -64.8287 
         300            0           -0           -0     -60.5672 
         300     0.013333 -5.36693e-05  1.06848e-07     -60.5672 
         300     0.053333 -6.75899e-05  1.59708e-06     -60.5672 
         300         0.12  -0.00015935  7.12625e-06     -60.5672 
         300     0.213332  -0.00032031  1.86201e-05     -60.5672 
         300     0.333332 -0.000479339  3.55168e-05     -60.5672 
         300         0.48 -0.000573751  5.55555e-05     -60.5672 
         300     0.653331 -0.000592327  7.70338e-05     -60.5672 
         300     0.853332  -0.00055139  9.95334e-05     -60.5672 
         300         1.08 -0.000475614  0.000122426     -60.5672 
         300      1.33333 -0.000395268  0.000143947     -60.5672 
         300      1.61333 -0.000320203  0.000162218     -60.5672 
         300         1.92  -0.00023988  0.000176037     -60.5671 
         300      2.25333  -0.00015534  0.000184138     -60.5671 
         300      2.61333 -7.48987e-05  0.000185702     -60.5671 
         300            3 -8.41443e-06  0.000180821     -60.5671 
         350            0           -0           -0     -56.3068 
         350     0.013333    2.349e-05  5.71746e-08     -56.3068 
         350     0.053333   0.00021817  9.86035e-07     -56.3068 
         350         0.12  0.000389526  5.26169e-06     -56.3068 
         350     0.213332  0.000435404  1.64453e-05     -56.3068 
         350     0.333332  0.000358977   3.6899e-05     -56.3068 
         350         0.48  0.000245232   6.6207e-05     -56.3068 
         350     0.653331  0.000170346  0.000102146     -56.3068 
         350     0.853332  0.000152544  0.000142133     -56.3068 
         350         1.08  0.000156372  0.000183105     -56.3068 
         350      1.33333  0.000134567  0.000221466     -56.3068 
         350      1.61333  8.53594e-05  0.000254741     -56.3068 
         350         1.92   3.3401e-05  0.000281421     -56.3068 
         350      2.25333 -1.79794e-05  0.000299474     -56.3068 
         350      2.61333 -6.67332e-05  0.000307179     -56.3068 
         350            3  -0.00010738  0.000303937     -56.3068 
         400            0           -0           -0     -52.0467 
         400     0.013333 -5.65526e-05 -1.45961e-07     -52.0467 
         400     0.053333 -6.95186e-06 -2.15685e-06     -52.0467 
         400         0.12  0.000144379 -9.49644e-06     -52.0467 
         400     0.213332  0.000384845 -2.45505e-05     -52.0467 
         400     0.333332  0.000620413 -4.65528e-05     -52.0467 
         400         0.48  0.000769266 -7.26912e-05     -52.0467 
         400     0.653331   0.00081578 -0.000100927     -52.0467 
         400     0.853332  0.000777172 -0.000131119     -52.0467 
         400         1.08  0.000672328 -0.000163464     -52.0467 
         400      1.33333    0.0005369 -0.000196385     -52.0467 
         400      1.61333  0.000407427 -0.000226774     -52.0467 
         400         1.92  0.000280957 -0.000252178     -52.0467 
         400      2.25333  0.000148817 -0.000270589     -52.0467 
         400      2.61333  1.73069e-05   -0.0002805     -52.0467 
         400            3 -9.86128e-05 -0.000281151     -52.0467 
         450            0 -9.29062e-20  7.46061e-27     -47.7864 
         450     0.013333 -0.000142216  5.43736e-09     -47.7864 
         450     0.053333 -0.000349829 -7.32243e-08     -47.7864 
         450         0.12 -0.000581034 -1.33048e-06     -47.7864 
         450     0.213332 -0.000715819 -6.56874e-06     -47.7864 
         450     0.333332 -0.000716256 -1.87073e-05     -47.7864 
         450         0.48 -0.000643264  -3.8378e-05     -47.7864 
         450     0.653331 -0.000577245 -6.36641e-05     -47.7864 
         450     0.853332  -0.00054281 -9.14607e-05     -47.7864 
         450         1.08 -0.000505177 -0.000118385     -47.7864 
         450      1.33333 -0.000429843   -0.0001419     -47.7864 
         450      1.61333 -0.000334251 -0.000161577     -47.7864 
         450         1.92 -0.000244014 -0.000177643     -47.7864 
         450      2.25333 -0.000155301 -0.000189065     -47.7864 
         450      2.61333 -6.81795e-05 -0.000194722     -47.7864 
         450            3  9.21912e-06 -0.000193987     -47.7864 
         500            0            0            0     -43.5245 
         500     0.013333 -2.29068e-05  1.62536e-07     -43.5245 
         500     0.053333  2.58287e-05  2.45602e-06     -43.5245 
         500         0.12 -3.59821e-05  1.11764e-05     -43.5245 
         500     0.213332 -0.000240613  3.00449e-05     -43.5245 
         500     0.333332 -0.000499197  5.93525e-05     -43.5245 
         500         0.48 -0.000696205  9.63584e-05     -43.5245 
         500     0.653331 -0.000780655  0.000138366     -43.5245 
         500     0.853332 -0.000755532   0.00018452     -43.5245 
         500         1.08 -0.000646874  0.000234269     -43.5245 
         500      1.33333 -0.000514614  0.000284665     -43.5245 
         500      1.61333 -0.000413797  0.000331143     -43.5245 
         500         1.92 -0.000329638  0.000370637     -43.5245 
         500      2.25333 -0.000240842  0.000401056     -43.5245 
         500      2.61333 -0.000147246  0.000420016     -43.5245 
         500            3 -5.93358e-05  0.000425741     -43.5245 
         550            0           -0           -0     -39.2611 
         550     0.013333 -6.22615e-05 -3.37535e-08     -39.2611 
         550     0.053333 -5.99325e-05 -4.81124e-07     -39.2611 
         550         0.12  -4.4781e-05   -2.026e-06     -39.2611 
         550     0.213332 -1.35782e-05 -5.06619e-06     -39.2611 
         550     0.333332  2.39563e-05 -9.55965e-06     -39.2611 
         550         0.48  5.97927e-05 -1.53519e-05     -39.2611 
         550     0.653331  9.07283e-05 -2.24425e-05     -39.2611 
         550     0.853332  0.000110849 -3.11287e-05     -39.2611 
         550         1.08  0.000104873 -4.21213e-05     -39.2611 
         550      1.33333  6.54865e-05 -5.57597e-05     -39.2611 
         550      1.61333  1.81745e-05 -7.06915e-05     -39.2611 
         550         1.92 -1.25979e-05 -8.48249e-05     -39.2611 
         550      2.25333 -3.71461e-05 -9.70298e-05     -39.2611 
         550      2.61333 -6.15078e-05 -0.000106623     -39.2611 
         550            3 -8.32744e-05 -0.000113005     -39.2611 
         600            0           -0           -0     -34.9967 
         600     0.013333 -1.70432e-05 -5.54769e-09     -34.9967 
         600     0.053333   9.3929e-05 -1.01968e-08     -34.9967 
         600         0.12  0.000215714  4.37521e-07     -34.9967 
         600     0.213332  0.000291138  2.66805e-06     -34.9967 
         600     0.333332  0.000297752  8.20025e-06     -34.9967 
         600         0.48  0.000264441  1.74585e-05     -34.9967 
         600     0.653331  0.000234315  2.94472e-05     -34.9967 
         600     0.853332  0.000221567  4.24204e-05     -34.9967 
         600         1.08   0.00020497  5.44689e-05     -34.9967 
         600      1.33333   0.00016418  6.44538e-05     -34.9967 
         600      1.61333  0.000112964  7.26673e-05     -34.9967 
         600         1.92  6.86757e-05  7.98062e-05     -34.9967 
         600      2.25333  2.59386e-05  8.54097e-05     -34.9967 
         600      2.61333 -1.80272e-05   8.8935e-05     -34.9967 
         600            3 -6.05523e-05  9.00037e-05     -34.9967 
         650            0            0            0     -30.7316 
         650     0.013333  -0.00010168 -1.06435e-07     -30.7316 
         650     0.053333 -0.000174776 -1.65336e-06     -30.7316 
         650         0.12 -0.000179223 -7.81608e-06     -30.7316 
         650     0.213332 -5.76955e-05 -2.18887e-05     -30.7316 
         650     0.333332  0.000137804 -4.48644e-05     -30.7316 
         650         0.48  0.000304836 -7.49122e-05     -30.7316 
         650     0.653331  0.000380746 -0.000109438     -30.7316 
         650     0.853332  0.000362263 -0.000146935     -30.7316 
         650         1.08  0.000282256 -0.000186235     -30.7316 
         650      1.33333  0.000199291 -0.000224813     -30.7316 
         650      1.61333   0.00015359 -0.000259639     -30.7316 
         650         1.92  0.000121799 -0.000289552     -30.7316 
         650      2.25333  8.34216e-05 -0.000313583     -30.7316 
         650      2.61333  3.78298e-05 -0.000330085     -30.7316 
         650            3 -7.88456e-06 -0.000337538     -30.7316 
         700            0            0            0     -26.4664 
         700     0.013333 -5.23028e-05  1.00159e-07     -26.4664 
         700     0.053333 -5.91767e-05  1.47928e-06     -26.4664 
         700         0.12 -0.000135951  6.50385e-06     -26.4664 
         700     0.213332 -0.000275582  1.67586e-05     -26.4664 
         700     0.333332  -0.00041268  3.16071e-05     -26.4664 
         700         0.48 -0.000489821  4.90734e-05     -26.4664 
         700     0.653331 -0.000499792  6.80271e-05     -26.4664 
         700     0.853332 -0.000455775   8.9101e-05     -26.4664 
         700         1.08 -0.000362286  0.000113416     -26.4664 
         700      1.33333 -0.000245442  0.000140065     -26.4664 
         700      1.61333 -0.000160815  0.000165697     -26.4664 
         700         1.92 -0.000117942  0.000187686     -26.4664 
         700      2.25333 -8.35317e-05  0.000205397     -26.4664 
         700      2.61333 -4.59981e-05  0.000218127     -26.4664 
         700            3 -1.18327e-05  0.000224929     -26.4664 
         750            0           -0           -0     -22.1998 
         750     0.013333  2.24871e-05 -9.75775e-08     -22.1998 
         750     0.053333  0.000266185 -1.35408e-06     -22.1998 
         750         0.12  0.000620253 -5.35498e-06     -22.1998 
         750     0.213332  0.000972216 -1.17936e-05     -22.1998 
         750     0.333332   0.00119737 -1.77596e-05     -22.1998 
         750         0.48   0.00125794 -1.99876e-05     -22.1998 
         750     0.653331   0.00121111 -1.75507e-05     -22.1998 
         750     0.853332   0.00112404 -1.22646e-05     -22.1998 
         750         1.08   0.00100961 -7.20483e-06     -22.1998 
         750      1.33333  0.000855758 -4.28737e-06     -22.1998 
         750      1.61333  0.000685883 -2.76532e-06     -22.1998 
         750         1.92   0.00053264 -7.90766e-07     -22.1998 
         750      2.25333  0.000380507  2.07152e-06     -22.1998 
         750      2.61333  0.000219511  5.23771e-06     -22.1998 
         750            3  5.69047e-05  8.32196e-06     -22.1998 
         800            0            0            0     -17.9332 
         800     0.013333 -9.46535e-05  1.70728e-07     -17.9332 
         800     0.053333 -0.000236605  2.50487e-06     -17.9332 
         800         0.12 -0.000542018  1.09212e-05     -17.9332 
         800     0.213332 -0.000959481  2.78914e-05     -17.9332 
         800     0.333332  -0.00134317  5.20298e-05     -17.9332 
         800         0.48  -0.00157422  7.94182e-05     -17.9332 
         800     0.653331  -0.00164137  0.000107184     -17.9332 
         800     0.853332  -0.00159227   0.00013542     -17.9332 
         800         1.08  -0.00145675  0.000166031     -17.9332 
         800      1.33333  -0.00125488  0.000199703     -17.9332 
         800      1.61333  -0.00103778  0.000234042     -17.9332 
         800         1.92 -0.000848275  0.000265572     -17.9332 
         800      2.25333 -0.000662842   0.00029232     -17.9332 
         800      2.61333 -0.000464791  0.000312956     -17.9332 
         800            3 -0.000260641  0.000326174     -17.9332 
         850            0           -0           -0     -13.6641 
         850     0.013333 -0.000101233 -1.55299e-07     -13.6641 
         850     0.053333 -0.000158986 -2.36408e-06     -13.6641 
         850         0.12 -0.000112401 -1.08858e-05     -13.6641 
         850     0.213332  9.18136e-05 -2.96916e-05     -13.6641 
         850     0.333332  0.000369245  -5.9468e-05     -13.6641 
         850         0.48  0.000585952 -9.74562e-05     -13.6641 
         850     0.653331  0.000672385 -0.000140422     -13.6641 
         850     0.853332  0.000633239 -0.000187146     -13.6641 
         850         1.08  0.000500063 -0.000237665     -13.6641 
         850      1.33333  0.000331582 -0.000290272     -13.6641 
         850      1.61333  0.000206221 -0.000340732     -13.6641 
         850         1.92  0.000142137 -0.000385375     -13.6641 
         850      2.25333   9.0908e-05 -0.000423151     -13.6641 
         850      2.61333  3.07593e-05 -0.000452332     -13.6641 
         850            3 -3.15578e-05 -0.000470741     -13.6641 
         900            0           -0           -0     -9.39521 
         900     0.013333  3.61287e-05  1.49709e-07     -9.39521 
         900     0.053333  0.000236948  2.36172e-06     -9.39521 
         900         0.12   0.00034202  1.14324e-05     -9.39521 
         900     0.213332  0.000221479  3.29637e-05     -9.39521 
         900     0.333332 -7.65771e-05  6.96863e-05     -9.39521 
         900         0.48 -0.000382353  0.000119698     -9.39521 
         900     0.653331 -0.000558701  0.000178762     -9.39521 
         900     0.853332 -0.000571476  0.000243631     -9.39521 
         900         1.08 -0.000461641  0.000312297     -9.39521 
         900      1.33333 -0.000320538   0.00038138     -9.39521 
         900      1.61333 -0.000241253  0.000445964     -9.39521 
         900         1.92 -0.000223323  0.000503031     -9.39521 
         900      2.25333 -0.000207437  0.000551827     -9.39521 
         900      2.61333 -0.000175935  0.000590416     -9.39521 
         900            3  -0.00014075  0.000615936     -9.39521 
         950            0           -0           -0     -5.12574 
         950     0.013333 -0.000246778    4.372e-09     -5.12574 
         950     0.053333 -0.000732897 -1.37083e-07     -5.12574 
         950         0.12  -0.00132062 -2.01673e-06     -5.12574 
         950     0.213332  -0.00175863 -9.94288e-06     -5.12574 
         950     0.333332  -0.00190893 -2.92428e-05     -5.12574 
         950         0.48  -0.00182759 -6.26205e-05     -5.12574 
         950     0.653331  -0.00167774 -0.000108687     -5.12574 
         950     0.853332  -0.00158134 -0.000163596     -5.12574 
         950         1.08  -0.00154549 -0.000222489     -5.12574 
         950      1.33333  -0.00148249 -0.000279795     -5.12574 
         950      1.61333  -0.00131907 -0.000331018     -5.12574 
         950         1.92  -0.00109624 -0.000375556     -5.12573 
         950      2.25333 -0.000870361 -0.000414291     -5.12573 
         950      2.61333 -0.000646243 -0.000445995     -5.12572 
         950            3 -0.000411439 -0.000468244      -5.1257 
        1000            0 -5.25638e-20 -1.00461e-23     -0.85396 
        1000     0.013333 -2.53638e-05  -1.7083e-07     -0.85396 
        1000     0.053333  0.000103901 -2.16321e-06     -0.85396 
        1000         0.12   0.00034874 -8.93568e-06     -0.85396 
        1000     0.213332   0.00067044 -2.21265e-05     -0.85396 
        1000     0.333332  0.000967103 -4.06116e-05     -0.85396 
        1000         0.48   0.00115592 -6.08441e-05    -0.853959 
        1000     0.653331   0.00122703 -8.07174e-05    -0.853959 
        1000     0.853332   0.00121421 -0.000100872    -0.853958 
        1000         1.08   0.00113203 -0.000123432    -0.853958 
        1000      1.33333   0.00097153 -0.000150319    -0.853957 
        1000      1.61333  0.000760059 -0.000180672    -0.853958 
        1000         1.92  0.000572549 -0.000210751     -0.85396 
        1000      2.25333  0.000412514 -0.000237309    -0.853965 
        1000      2.61333   0.00025657 -0.000259197    -0.853972 
        1000            3  9.33883e-05 -0.000275707    -0.853983 
