Variables = x, y, u, v, p

Zone, I=416, F=POINT
         -50            0            0            0      206.538 
         -50     0.013333  0.000693119  1.65094e-07      206.538 
         -50     0.053333  0.000632853  5.90433e-07      206.538 
         -50         0.12  0.000615942  1.30809e-06      206.538 
         -50     0.213332  0.000608231  2.38892e-06      206.538 
         -50     0.333332  0.000601565  4.07756e-06      206.537 
         -50         0.48  0.000593021  5.29478e-06      206.537 
         -50     0.653331  0.000586854  8.22754e-06      206.536 
         -50     0.853332  0.000586892  1.07452e-05      206.535 
         -50         1.08  0.000590874  1.42217e-05      206.534 
         -50      1.33333  0.000595091  1.76903e-05      206.532 
         -50      1.61333  0.000601011  2.11183e-05      206.529 
         -50         1.92  0.000607647  2.43845e-05      206.526 
         -50      2.25333  0.000606158  2.66325e-05      206.521 
         -50      2.61333   0.00060224  3.05834e-05      206.515 
         -50            3  0.000604576  3.87156e-05      206.508 
         -25            0           -0           -0      198.325 
         -25     0.013333  0.000512322  7.45522e-08      198.325 
         -25     0.053333  0.000480615  3.97073e-07      198.325 
         -25         0.12  0.000476423  1.32659e-06      198.325 
         -25     0.213332  0.000470071  3.23115e-06      198.325 
         -25     0.333332  0.000460606  6.21338e-06      198.325 
         -25         0.48  0.000452794  1.02144e-05      198.325 
         -25     0.653331  0.000451921  1.49212e-05      198.324 
         -25     0.853332   0.00045585  1.99862e-05      198.324 
         -25         1.08  0.000458285  2.49922e-05      198.324 
         -25      1.33333     0.000457  2.91526e-05      198.323 
         -25      1.61333  0.000453719  3.21835e-05      198.322 
         -25         1.92  0.000455529  3.45493e-05       198.32 
         -25      2.25333  0.000454729  3.41368e-05      198.319 
         -25      2.61333  0.000449364  3.28502e-05      198.316 
         -25            3  0.000446151  3.50041e-05      198.314 
           0            0            0            0      191.639 
           0     0.013333   0.00118343 -0.000710527      191.646 
           0     0.053333  0.000721059 -0.000365597      191.657 
           0         0.12  0.000534148 -0.000241962      191.668 
           0     0.213332  0.000422943 -0.000180596       191.68 
           0     0.333332  0.000355754  -0.00013984      191.693 
           0         0.48  0.000315247 -0.000107072      191.705 
           0     0.653331  0.000300108 -8.02207e-05      191.716 
           0     0.853332  0.000304394 -5.74514e-05      191.727 
           0         1.08  0.000319005 -3.80569e-05      191.738 
           0      1.33333  0.000336622 -2.19357e-05      191.748 
           0      1.61333  0.000356933 -9.15533e-06      191.757 
           0         1.92  0.000376998   3.9544e-08      191.766 
           0      2.25333  0.000390965  6.37035e-06      191.774 
           0      2.61333  0.000405977  1.16573e-05      191.782 
           0            3  0.000418473  1.47318e-05      191.788 
          20            0  0.000133467  0.000306587      187.504 
          20     0.013333  0.000115291  0.000309628      187.504 
          20     0.053333  5.82895e-05  0.000318417      187.503 
          20         0.12 -4.40647e-05  0.000332022      187.503 
          20     0.213332 -0.000196879  0.000349242      187.503 
          20     0.333332 -0.000386173  0.000369456      187.502 
          20         0.48 -0.000552503  0.000393647      187.501 
          20     0.653331 -0.000607917  0.000423376        187.5 
          20     0.853332 -0.000522967  0.000456323      187.499 
          20         1.08 -0.000361376  0.000485267      187.497 
          20      1.33333 -0.000174838  0.000502968      187.496 
          20      1.61333  2.52109e-05  0.000504564      187.493 
          20         1.92   0.00021175   0.00048775       187.49 
          20      2.25333   0.00035775  0.000454121      187.487 
          20      2.61333   0.00044701  0.000408426      187.484 
          20            3  0.000482207  0.000354951       187.48 
          40            0           -0           -0      183.222 
          40     0.013333  0.000379509  2.96701e-07      183.222 
          40     0.053333  0.000307687  4.09248e-06      183.222 
          40         0.12  0.000128175  1.71521e-05      183.222 
          40     0.213332 -0.000125152   4.1941e-05      183.222 
          40     0.333332  -0.00032376  7.57723e-05      183.222 
          40         0.48 -0.000395808  0.000115864      183.222 
          40     0.653331 -0.000355317  0.000162308      183.222 
          40     0.853332 -0.000275591  0.000213249      183.222 
          40         1.08 -0.000161305  0.000264173      183.222 
          40      1.33333  3.61879e-06  0.000309975      183.222 
          40      1.61333   0.00016687  0.000343612      183.221 
          40         1.92  0.000335007  0.000359863      183.221 
          40      2.25333  0.000453563  0.000358101      183.221 
          40      2.61333  0.000521529  0.000341623       183.22 
          40            3   0.00056176  0.000315552      183.219 
          60            0           -0           -0      179.156 
          60     0.013333  0.000310775  1.89545e-07      179.156 
          60     0.053333   0.00013564  2.48021e-06      179.156 
          60         0.12  -9.4733e-05  9.36477e-06      179.156 
          60     0.213332 -0.000294346  1.97682e-05      179.156 
          60     0.333332 -0.000385966  2.96378e-05      179.156 
          60         0.48 -0.000390965  3.69002e-05      179.156 
          60     0.653331 -0.000343423  4.43615e-05      179.156 
          60     0.853332 -0.000218696  5.75916e-05      179.156 
          60         1.08 -3.61144e-05  7.67984e-05      179.156 
          60      1.33333  0.000113812  9.57121e-05      179.156 
          60      1.61333  0.000227026   0.00010923      179.156 
          60         1.92  0.000343428  0.000116144      179.155 
          60      2.25333   0.00042978  0.000116413      179.155 
          60      2.61333  0.000481198   0.00011091      179.155 
          60            3  0.000504891  0.000102259      179.155 
          80            0           -0           -0      175.226 
          80     0.013333   0.00029361  1.25486e-07      175.226 
          80     0.053333  0.000108628  1.62885e-06      175.226 
          80         0.12 -0.000120036   6.0504e-06      175.226 
          80     0.213332 -0.000317098  1.24237e-05      175.226 
          80     0.333332 -0.000417859  1.76253e-05      175.226 
          80         0.48 -0.000436786  1.95687e-05      175.226 
          80     0.653331  -0.00040849  1.93205e-05      175.226 
          80     0.853332 -0.000316614  2.08439e-05      175.226 
          80         1.08 -0.000148284  2.66453e-05      175.226 
          80      1.33333  1.68214e-05  3.39157e-05      175.226 
          80      1.61333  0.000145087    3.865e-05      175.225 
          80         1.92   0.00027978   4.1281e-05      175.225 
          80      2.25333  0.000386096  4.18649e-05      175.225 
          80      2.61333  0.000454523  4.02397e-05      175.225 
          80            3  0.000492207    3.689e-05      175.225 
         100            0           -0           -0      171.377 
         100     0.013333  0.000331227  1.69953e-07      171.377 
         100     0.053333  0.000240068  2.44001e-06      171.377 
         100         0.12   7.3503e-05  1.04318e-05      171.377 
         100     0.213332 -0.000143397  2.59128e-05      171.377 
         100     0.333332 -0.000316035  4.69435e-05      171.377 
         100         0.48 -0.000391705  7.02904e-05      171.377 
         100     0.653331 -0.000373721  9.45574e-05      171.377 
         100     0.853332  -0.00028156  0.000119845      171.377 
         100         1.08 -0.000153917  0.000144696      171.377 
         100      1.33333 -3.71562e-05  0.000166103      171.377 
         100      1.61333  7.48103e-05   0.00018167      171.377 
         100         1.92  0.000207958  0.000189865      171.377 
         100      2.25333  0.000323443  0.000190118      171.376 
         100      2.61333  0.000406324  0.000182468      171.376 
         100            3  0.000454829  0.000168632      171.376 
         150            0  3.58948e-19  5.04483e-25      161.942 
         150     0.013333  0.000260854 -8.08766e-09      161.942 
         150     0.053333  5.57631e-05 -3.04173e-07      161.942 
         150         0.12 -0.000132414 -2.39058e-06      161.942 
         150     0.213332 -0.000231484 -9.07992e-06      161.942 
         150     0.333332 -0.000241181 -2.23931e-05      161.942 
         150         0.48 -0.000222925 -4.19995e-05      161.942 
         150     0.653331 -0.000219392 -6.58211e-05      161.942 
         150     0.853332 -0.000213704 -9.04371e-05      161.942 
         150         1.08 -0.000157646 -0.000111929      161.942 
         150      1.33333 -5.40374e-05 -0.000128301      161.942 
         150      1.61333  5.88302e-05 -0.000140107      161.942 
         150         1.92  0.000175043 -0.000146209      161.942 
         150      2.25333  0.000279671 -0.000145807      161.942 
         150      2.61333  0.000362126 -0.000139766      161.942 
         150            3  0.000418565 -0.000129115      161.942 
         200            0           -0           -0      152.626 
         200     0.013333  0.000433712  6.10129e-08      152.626 
         200     0.053333  0.000646044  1.13202e-06      152.626 
         200         0.12  0.000856222  6.41921e-06      152.626 
         200     0.213332   0.00092355  2.06573e-05      152.626 
         200     0.333332  0.000861499  4.65893e-05      152.626 
         200         0.48  0.000777745  8.30677e-05      152.626 
         200     0.653331  0.000750587  0.000126751      152.626 
         200     0.853332  0.000763267  0.000172966      152.626 
         200         1.08  0.000734521  0.000215786      152.626 
         200      1.33333  0.000641892  0.000251401      152.626 
         200      1.61333  0.000534921  0.000279666      152.626 
         200         1.92   0.00042842  0.000298307      152.626 
         200      2.25333  0.000329684  0.000305245      152.626 
         200      2.61333  0.000246737  0.000300618      152.626 
         200            3  0.000184051  0.000285573      152.626 
         250            0           -0           -0      143.351 
         250     0.013333  0.000308296  5.99146e-08      143.351 
         250     0.053333  0.000211449  8.16773e-07      143.351 
         250         0.12  9.66406e-05  3.17907e-06      143.351 
         250     0.213332 -1.55724e-05  7.04904e-06      143.351 
         250     0.333332 -9.30495e-05  1.13334e-05      143.351 
         250         0.48 -0.000133915  1.51614e-05      143.351 
         250     0.653331 -0.000150491  1.87356e-05      143.351 
         250     0.853332 -0.000138184  2.34468e-05      143.351 
         250         1.08 -7.89212e-05  3.07719e-05      143.351 
         250      1.33333  7.50436e-06  3.99998e-05      143.351 
         250      1.61333  8.66706e-05   4.8546e-05      143.351 
         250         1.92   0.00016812  5.53319e-05      143.351 
         250      2.25333  0.000245018  6.00631e-05      143.351 
         250      2.61333  0.000312459  6.23532e-05      143.351 
         250            3  0.000367516  6.22086e-05      143.351 
         300            0            0            0      134.092 
         300     0.013333  0.000335937 -7.81746e-08      134.092 
         300     0.053333  0.000345151 -1.14604e-06      134.092 
         300         0.12  0.000431305 -4.97344e-06      134.092 
         300     0.213332  0.000561554 -1.26007e-05      134.092 
         300     0.333332  0.000679817 -2.33385e-05      134.092 
         300         0.48  0.000747195 -3.56226e-05      134.092 
         300     0.653331  0.000762716 -4.85784e-05      134.092 
         300     0.853332  0.000735445 -6.23931e-05      134.092 
         300         1.08   0.00067435 -7.71686e-05      134.092 
         300      1.33333  0.000600867 -9.18649e-05      134.092 
         300      1.61333  0.000530843 -0.000104802      134.092 
         300         1.92  0.000455051 -0.000114837      134.092 
         300      2.25333  0.000380116 -0.000121236      134.092 
         300      2.61333  0.000310957  -0.00012344      134.091 
         300            3  0.000251882 -0.000121349      134.091 
         350            0            0            0      124.837 
         350     0.013333  0.000287935   -1.369e-07      124.837 
         350     0.053333  0.000195019 -2.12033e-06      124.837 
         350         0.12  0.000217055 -9.94511e-06      124.837 
         350     0.213332  0.000382361 -2.74779e-05      124.837 
         350     0.333332  0.000607555 -5.53659e-05      124.837 
         350         0.48  0.000775866 -9.08749e-05      124.837 
         350     0.653331  0.000836508 -0.000130776      124.837 
         350     0.853332  0.000803316 -0.000173059      124.837 
         350         1.08  0.000723716  -0.00021562      124.837 
         350      1.33333  0.000649234 -0.000255349      124.837 
         350      1.61333  0.000587882  -0.00028964      124.837 
         350         1.92  0.000515054 -0.000316445      124.837 
         350      2.25333  0.000438132 -0.000333622      124.837 
         350      2.61333  0.000363558 -0.000339655      124.837 
         350            3  0.000295155 -0.000334137      124.837 
         400            0    6.549e-19   9.3053e-27      115.585 
         400     0.013333  0.000181662 -1.57001e-08      115.585 
         400     0.053333 -0.000211045 -5.23505e-07      115.585 
         400         0.12 -0.000593189 -4.20956e-06      115.585 
         400     0.213332 -0.000774391 -1.67365e-05      115.585 
         400     0.333332 -0.000717748 -4.32613e-05      115.585 
         400         0.48 -0.000557925 -8.41312e-05      115.585 
         400     0.653331 -0.000437458 -0.000135086      115.585 
         400     0.853332 -0.000384779 -0.000190084      115.585 
         400         1.08 -0.000327513 -0.000242971      115.585 
         400      1.33333  -0.00020915 -0.000289424      115.585 
         400      1.61333 -6.40391e-05 -0.000328763      115.585 
         400         1.92  7.17863e-05 -0.000360341      115.585 
         400      2.25333  0.000201723 -0.000381613      115.585 
         400      2.61333  0.000323298 -0.000390737      115.585 
         400            3  0.000425574 -0.000386878      115.585 
         450            0            0            0      106.334 
         450     0.013333  0.000253214  3.84106e-07      106.334 
         450     0.053333 -7.69404e-05  5.56319e-06      106.334 
         450         0.12 -0.000686056  2.37269e-05      106.334 
         450     0.213332  -0.00145035  5.88295e-05      106.334 
         450     0.333332  -0.00208154  0.000106217      106.334 
         450         0.48  -0.00240602    0.0001575      106.334 
         450     0.653331  -0.00245256  0.000208595      106.334 
         450     0.853332  -0.00229892  0.000261854      106.334 
         450         1.08   -0.0019755  0.000320911      106.334 
         450      1.33333  -0.00156067  0.000383407      106.334 
         450      1.61333  -0.00116808  0.000441314      106.334 
         450         1.92 -0.000778424  0.000488912      106.334 
         450      2.25333 -0.000376453  0.000523418      106.334 
         450      2.61333  2.21935e-05  0.000542179      106.334 
         450            3  0.000386188  0.000543496      106.334 
         500            0            0            0      97.0851 
         500     0.013333  0.000494527 -3.28641e-08      97.0851 
         500     0.053333   0.00089537 -2.23567e-07      97.0851 
         500         0.12   0.00139394   7.1983e-07      97.0851 
         500     0.213332   0.00175381  7.10879e-06      97.0851 
         500     0.333332    0.0018744  2.39879e-05      97.0851 
         500         0.48   0.00183147  5.31929e-05      97.0851 
         500     0.653331   0.00176218  9.25824e-05      97.0851 
         500     0.853332   0.00172789  0.000137727      97.0851 
         500         1.08   0.00167472  0.000182509      97.0851 
         500      1.33333   0.00151529  0.000220835      97.0851 
         500      1.61333   0.00126746  0.000250811      97.0851 
         500         1.92   0.00101247  0.000274162      97.0851 
         500      2.25333   0.00075731  0.000290038      97.0851 
         500      2.61333   0.00050332  0.000297265      97.0851 
         500            3  0.000267419  0.000295121      97.0851 
         550            0           -0           -0      87.8353 
         550     0.013333  0.000250592 -4.63456e-08      87.8353 
         550     0.053333  3.27856e-05 -7.78627e-07      87.8353 
         550         0.12 -0.000162225 -4.07456e-06      87.8353 
         550     0.213332 -0.000249257 -1.26961e-05      87.8353 
         550     0.333332 -0.000212399 -2.88398e-05      87.8353 
         550         0.48 -0.000111671  -5.2853e-05      87.8353 
         550     0.653331 -1.77384e-05 -8.35026e-05      87.8353 
         550     0.853332  3.13177e-05 -0.000119205      87.8353 
         550         1.08  3.56656e-05 -0.000158417      87.8353 
         550      1.33333  3.05533e-05 -0.000198733      87.8353 
         550      1.61333  5.79562e-05   -0.0002367      87.8353 
         550         1.92  0.000110114 -0.000269892      87.8353 
         550      2.25333  0.000168757 -0.000296516      87.8353 
         550      2.61333  0.000227045  -0.00031493      87.8353 
         550            3  0.000282331 -0.000323796      87.8353 
         600            0           -0           -0      78.5872 
         600     0.013333  0.000481225  3.10079e-08      78.5872 
         600     0.053333  0.000829247  6.96352e-07      78.5872 
         600         0.12    0.0012181  4.68287e-06      78.5872 
         600     0.213332   0.00141985  1.73516e-05      78.5872 
         600     0.333332   0.00136989  4.38931e-05      78.5872 
         600         0.48   0.00118532  8.53462e-05      78.5872 
         600     0.653331   0.00102564  0.000138167      78.5872 
         600     0.853332  0.000951146  0.000196865      78.5872 
         600         1.08  0.000910264  0.000255899      78.5872 
         600      1.33333  0.000831724  0.000311061      78.5872 
         600      1.61333  0.000715761  0.000360847      78.5872 
         600         1.92  0.000601087  0.000404754      78.5872 
         600      2.25333  0.000487941    0.0004403      78.5872 
         600      2.61333  0.000375352  0.000464797      78.5872 
         600            3  0.000270439  0.000476199      78.5872 
         650            0            0            0      69.3391 
         650     0.013333  7.64489e-05 -2.12933e-07      69.3391 
         650     0.053333 -0.000533522 -3.53606e-06      69.3391 
         650         0.12  -0.00103566 -1.82142e-05      69.3391 
         650     0.213332  -0.00110277 -5.56673e-05      69.3391 
         650     0.333332  -0.00074114 -0.000123537      69.3391 
         650         0.48 -0.000247393 -0.000220489      69.3391 
         650     0.653331  8.99553e-05 -0.000338905      69.3391 
         650     0.853332  0.000175333  -0.00047069      69.3391 
         650         1.08   9.6952e-05 -0.000608177      69.3391 
         650      1.33333  3.63618e-05 -0.000742092      69.3391 
         650      1.61333  8.96708e-05 -0.000864402      69.3391 
         650         1.92  0.000174439 -0.000971512      69.3391 
         650      2.25333  0.000249588  -0.00105917      69.3391 
         650      2.61333  0.000314425  -0.00112166      69.3391 
         650            3  0.000372632  -0.00115368      69.3391 
         700            0  5.23624e-19  3.46062e-27      60.0931 
         700     0.013333  0.000723576  8.55049e-08      60.0931 
         700     0.053333   0.00168737  1.73044e-06      60.0931 
         700         0.12    0.0027791  1.08358e-05      60.0931 
         700     0.213332   0.00345998  3.87496e-05      60.0931 
         700     0.333332   0.00351985  9.70201e-05      60.0931 
         700         0.48   0.00315965  0.000189887      60.0931 
         700     0.653331   0.00273795  0.000312915      60.0931 
         700     0.853332   0.00247746    0.0004576      60.0931 
         700         1.08     0.002374  0.000614336      60.0931 
         700      1.33333   0.00226257  0.000771955      60.0931 
         700      1.61333   0.00200684  0.000919798      60.0931 
         700         1.92   0.00165992    0.0010524      60.0931 
         700      2.25333   0.00128796   0.00116465      60.0931 
         700      2.61333  0.000910708   0.00125042      60.0931 
         700            3  0.000535537   0.00130355       60.093 
         750            0           -0           -0      50.8443 
         750     0.013333  2.54979e-05  4.73989e-07      50.8443 
         750     0.053333 -0.000944457  6.77801e-06      50.8443 
         750         0.12  -0.00245796  2.83253e-05      50.8443 
         750     0.213332  -0.00414347  6.81442e-05      50.8443 
         750     0.333332  -0.00545481  0.000117439      50.8443 
         750         0.48  -0.00609279  0.000162057      50.8443 
         750     0.653331  -0.00615871  0.000193751      50.8443 
         750     0.853332  -0.00590631  0.000214574      50.8443 
         750         1.08  -0.00546245  0.000232696      50.8443 
         750      1.33333  -0.00483819  0.000254529      50.8443 
         750      1.61333  -0.00408682  0.000279675      50.8443 
         750         1.92  -0.00329092  0.000303282      50.8443 
         750      2.25333  -0.00244637  0.000321994      50.8443 
         750      2.61333  -0.00155655  0.000334446      50.8443 
         750            3 -0.000654827  0.000339629      50.8444 
         800            0            0            0      41.6007 
         800     0.013333  5.11291e-05 -6.16804e-07      41.6007 
         800     0.053333 -0.000504878 -9.52095e-06      41.6007 
         800         0.12 -0.000646157 -4.48005e-05      41.6007 
         800     0.213332 -1.45213e-05 -0.000125595      41.6007 
         800     0.333332   0.00114772 -0.000259402      41.6007 
         800         0.48   0.00226043  -0.00043834      41.6007 
         800     0.653331   0.00291384 -0.000648485      41.6007 
         800     0.853332   0.00302606 -0.000880634      41.6007 
         800         1.08   0.00270415  -0.00113038      41.6007 
         800      1.33333    0.0021828   -0.0013892      41.6007 
         800      1.61333   0.00174986   -0.0016409      41.6007 
         800         1.92   0.00147058  -0.00187083      41.6007 
         800      2.25333   0.00121338  -0.00206875      41.6007 
         800      2.61333   0.00092927  -0.00222452      41.6007 
         800            3  0.000642261  -0.00232775      41.6007 
         850            0           -0           -0      32.3562 
         850     0.013333  0.000801859    4.408e-08      32.3562 
         850     0.053333   0.00198942  1.16404e-06      32.3562 
         850         0.12   0.00340591  8.62988e-06      32.3562 
         850     0.213332   0.00442921  3.39077e-05      32.3562 
         850     0.333332   0.00476514  8.95602e-05      32.3562 
         850         0.48   0.00458177  0.000180973      32.3562 
         850     0.653331   0.00426413  0.000304333      32.3562 
         850     0.853332   0.00408099  0.000451086      32.3562 
         850         1.08    0.0040418   0.00061056      32.3562 
         850      1.33333   0.00393374  0.000769093      32.3562 
         850      1.61333   0.00355922  0.000913735      32.3562 
         850         1.92    0.0030084   0.00104032      32.3562 
         850      2.25333   0.00241134    0.0011477      32.3562 
         850      2.61333    0.0018011    0.0012319      32.3561 
         850            3   0.00117832   0.00128725      32.3561 
         900            0            0            0      23.1096 
         900     0.013333  0.000241557  1.98146e-07      23.1096 
         900     0.053333 -7.51981e-05  2.82634e-06      23.1096 
         900         0.12 -0.000572779  1.18079e-05      23.1096 
         900     0.213332  -0.00115025   2.8651e-05      23.1096 
         900     0.333332  -0.00162639  5.06513e-05      23.1096 
         900         0.48  -0.00189908  7.34691e-05      23.1096 
         900     0.653331  -0.00199791  9.48548e-05      23.1096 
         900     0.853332  -0.00199818  0.000116008      23.1096 
         900         1.08  -0.00191374   0.00014075      23.1096 
         900      1.33333  -0.00169788  0.000173271      23.1096 
         900      1.61333  -0.00136158  0.000213805      23.1096 
         900         1.92  -0.00102159  0.000256851      23.1096 
         900      2.25333 -0.000708935  0.000296934      23.1096 
         900      2.61333 -0.000401616  0.000331482      23.1096 
         900            3 -8.82655e-05   0.00035919      23.1096 
         950            0            0            0      13.8659 
         950     0.013333  0.000297996 -3.62695e-08      13.8659 
         950     0.053333  0.000196509 -5.54401e-07      13.8659 
         950         0.12  0.000121623 -2.56423e-06      13.8659 
         950     0.213332  9.06682e-05 -7.06621e-06      13.8659 
         950     0.333332  9.82379e-05 -1.44446e-05      13.8659 
         950         0.48  0.000120029 -2.44549e-05      13.8659 
         950     0.653331  0.000138387 -3.67543e-05      13.8659 
         950     0.853332   0.00014391 -5.13383e-05      13.8659 
         950         1.08  0.000128915 -6.84576e-05      13.8659 
         950      1.33333  9.35504e-05 -8.79768e-05      13.8659 
         950      1.61333  6.17066e-05 -0.000108476      13.8659 
         950         1.92  6.60266e-05 -0.000127451      13.8659 
         950      2.25333  9.37062e-05 -0.000143947      13.8659 
         950      2.61333  0.000128401  -0.00015717      13.8659 
         950            3  0.000165826 -0.000166554      13.8659 
        1000            0            0            0      4.62196 
        1000     0.013333   0.00027956  6.89666e-09      4.62196 
        1000     0.053333  0.000122001  3.48713e-08      4.62196 
        1000         0.12 -3.27369e-05 -2.50875e-07      4.62196 
        1000     0.213332 -0.000123668 -2.04834e-06      4.62196 
        1000     0.333332  -0.00011323  -7.0841e-06      4.62196 
        1000         0.48 -3.10643e-05 -1.63534e-05      4.62196 
        1000     0.653331  5.91856e-05 -2.92056e-05      4.62196 
        1000     0.853332  0.000119104 -4.37512e-05      4.62196 
        1000         1.08   0.00015734 -5.79981e-05      4.62196 
        1000      1.33333  0.000195757 -7.08895e-05      4.62196 
        1000      1.61333  0.000232886 -8.26394e-05      4.62196 
        1000         1.92  0.000254189 -9.37956e-05      4.62196 
        1000      2.25333  0.000266048 -0.000104168      4.62196 
        1000      2.61333  0.000275635 -0.000112889      4.62196 
        1000            3  0.000284595  -0.00011917      4.62196 
