Variables = x, y, u, v, p, uu, uv, vv, rms_normUSquared

Zone, I=15600, F=POINT
         -50            0  1.09989e-20  -3.6049e-23  7.70677e-05 -1.25417e-15  1.55107e-17 -5.26182e-19 -1.25264e-15 
         -50     0.000417 -1.98649e-10  1.33592e-12  7.70677e-05   1.1747e-14  1.15621e-17 -3.58023e-19  1.17483e-14 
         -50     0.001671 -8.15635e-10  5.81919e-12  7.70677e-05  1.92011e-13  4.97863e-18  3.40913e-19  1.92012e-13 
         -50     0.003762   -1.903e-09     1.48e-11  7.70677e-05  9.49973e-13  1.21995e-17  2.62655e-18  9.49978e-13 
         -50     0.006687 -3.52582e-09  3.03691e-11  7.70677e-05  2.92264e-12  5.26518e-17  1.12363e-17  2.92266e-12 
         -50      0.01045 -5.74706e-09  5.52661e-11  7.70678e-05  6.91713e-12  1.05492e-16  4.37354e-17  6.91721e-12 
         -50     0.015048 -8.60605e-09  9.27076e-11  7.70678e-05  1.38219e-11 -5.57094e-18  1.51576e-16  1.38221e-11 
         -50     0.020484 -1.21263e-08  1.46447e-10  7.70678e-05  2.45315e-11 -8.34478e-16  4.59678e-16  2.45322e-11 
         -50     0.026753 -1.63215e-08  2.20646e-10  7.70678e-05  3.98346e-11 -3.66061e-15  1.22877e-15  3.98361e-11 
         -50     0.033862 -2.12301e-08  3.19979e-10  7.70678e-05  6.03766e-11 -1.09675e-14   2.9471e-15    6.038e-11 
         -50     0.041803 -2.69067e-08  4.48912e-10  7.70678e-05  8.65264e-11 -2.69729e-14   6.4412e-15  8.65336e-11 
         -50     0.050579 -3.34221e-08  6.11307e-10  7.70678e-05  1.18404e-10 -5.81884e-14  1.30163e-14  1.18418e-10 
         -50     0.060198 -4.08131e-08   8.0967e-10  7.70678e-05  1.55855e-10 -1.13883e-13  2.46126e-14  1.55882e-10 
         -50     0.070646  -4.9033e-08  1.04493e-09  7.70678e-05  1.98351e-10 -2.06061e-13   4.3913e-14  1.98397e-10 
         -50     0.081937 -5.81203e-08  1.32169e-09  7.70678e-05  2.45206e-10 -3.49611e-13   7.4547e-14  2.45283e-10 
         -50     0.094057 -6.80729e-08  1.63325e-09  7.70678e-05  2.95406e-10 -5.61441e-13  1.21124e-13  2.95531e-10 
         -50     0.107021 -7.88519e-08    1.969e-09  7.70678e-05  3.47906e-10 -8.60886e-13  1.89302e-13  3.48101e-10 
         -50     0.120813 -9.04218e-08  2.33524e-09  7.70677e-05  4.01466e-10 -1.26566e-12  2.85827e-13   4.0176e-10 
         -50      0.13545  -1.0274e-07  2.71812e-09  7.70677e-05  4.54967e-10  -1.7936e-12  4.18714e-13  4.55397e-10 
         -50     0.150914 -1.15722e-07  3.08511e-09  7.70677e-05  5.07227e-10 -2.45928e-12  5.96594e-13  5.07837e-10 
         -50     0.167213 -1.29295e-07  3.39447e-09  7.70677e-05  5.57292e-10 -3.27418e-12  8.29196e-13  5.58138e-10 
         -50     0.184359  -1.4338e-07  3.60273e-09  7.70677e-05  6.04385e-10 -4.24438e-12  1.12728e-12  6.05533e-10 
         -50      0.20233 -1.57864e-07  3.66526e-09  7.70677e-05  6.47841e-10 -5.36696e-12  1.50181e-12  6.49368e-10 
         -50     0.221149 -1.72666e-07  3.51651e-09  7.70676e-05  6.87318e-10 -6.63493e-12  1.96529e-12  6.89313e-10 
         -50     0.240792 -1.87653e-07  3.00616e-09  7.70676e-05  7.22575e-10 -8.03483e-12   2.5295e-12   7.2514e-10 
         -50     0.261284 -2.02683e-07  1.88395e-09  7.70676e-05  7.53665e-10 -9.55081e-12  3.20727e-12  7.56913e-10 
         -50     0.282599 -2.17686e-07  2.44132e-10  7.70675e-05  7.80671e-10 -1.11345e-11  3.95821e-12  7.84677e-10 
         -50     0.304763 -2.32615e-07 -2.04227e-09  7.70675e-05  8.03877e-10 -1.27736e-11  4.96431e-12  8.08896e-10 
         -50      0.32775 -2.47353e-07 -5.11308e-09  7.70674e-05  8.23584e-10 -1.44212e-11  6.13902e-12  8.29784e-10 
         -50     0.351587 -2.61816e-07 -9.02807e-09  7.70674e-05  8.40131e-10 -1.60324e-11  7.45446e-12  8.47654e-10 
         -50     0.376246 -2.75895e-07 -1.36902e-08  7.70674e-05  8.53769e-10 -1.75542e-11  8.92467e-12   8.6277e-10 
         -50      0.40174 -2.89518e-07    -1.88e-08  7.70674e-05  8.64713e-10 -1.89305e-11  1.05928e-11   8.7539e-10 
         -50     0.428086 -3.02621e-07 -2.38071e-08  7.70675e-05  8.73074e-10 -2.00969e-11  1.25075e-11  8.85674e-10 
         -50     0.455252 -3.15126e-07 -2.78941e-08  7.70676e-05  8.78842e-10 -2.09789e-11  1.46955e-11  8.93638e-10 
         -50     0.483271 -3.26983e-07 -3.00566e-08  7.70677e-05  8.81904e-10 -2.14975e-11  1.71548e-11  8.99167e-10 
         -50     0.512109  -3.3809e-07 -2.92464e-08  7.70679e-05  8.82019e-10 -2.15713e-11  1.98418e-11  9.01977e-10 
         -50     0.541801 -3.48316e-07 -2.46879e-08   7.7068e-05  8.78857e-10 -2.11313e-11   2.2711e-11  9.01692e-10 
         -50     0.572311 -3.57393e-07 -1.63984e-08  7.70681e-05  8.72032e-10 -2.01411e-11  2.57725e-11  8.97935e-10 
         -50     0.603676 -3.64883e-07 -5.96021e-09  7.70682e-05  8.61147e-10  -1.8629e-11  2.92436e-11  8.90526e-10 
         -50     0.635857 -3.71241e-07   9.9374e-09  7.70681e-05  8.45674e-10 -1.61168e-11  3.13799e-11  8.77193e-10 
         -50     0.668875 -3.75431e-07  2.23412e-08  7.70678e-05  8.25435e-10 -1.33418e-11  3.43009e-11  8.59878e-10 
         -50     0.702748 -3.77226e-07  3.01984e-08  7.70675e-05   8.0011e-10 -1.03572e-11  3.78052e-11  8.38059e-10 
         -50     0.737438 -3.76638e-07  3.41174e-08  7.70671e-05  7.70063e-10 -7.28854e-12   4.1679e-11  8.11886e-10 
         -50     0.772984 -3.73703e-07  3.47862e-08  7.70668e-05  7.35708e-10 -4.24962e-12  4.57595e-11  7.81608e-10 
         -50     0.809345 -3.68485e-07  3.29304e-08  7.70664e-05   6.9763e-10 -1.35241e-12   4.9918e-11  7.47685e-10 
         -50     0.846564 -3.61069e-07  2.92929e-08  7.70661e-05  6.56416e-10  1.31045e-12  5.40761e-11  7.10623e-10 
         -50     0.884597 -3.51578e-07  2.46112e-08  7.70659e-05  6.12809e-10  3.65584e-12  5.81814e-11  6.71114e-10 
         -50     0.923489 -3.40141e-07  1.95713e-08  7.70657e-05  5.67491e-10  5.62591e-12  6.22208e-11  6.29828e-10 
         -50     0.963194 -3.26937e-07  1.47956e-08  7.70657e-05  5.21266e-10  7.17991e-12  6.61918e-11  5.87565e-10 
         -50      1.00376  -3.1214e-07  1.07884e-08  7.70657e-05  4.74812e-10  8.30547e-12  7.01124e-11  5.45022e-10 
         -50      1.04514 -2.95975e-07  7.92725e-09  7.70657e-05  4.28873e-10  9.01224e-12  7.39914e-11  5.02952e-10 
         -50      1.08735 -2.78664e-07  6.42019e-09  7.70658e-05  3.84042e-10  9.33678e-12  7.78343e-11  4.61954e-10 
         -50      1.13042 -2.60437e-07  6.29783e-09   7.7066e-05  3.40815e-10  9.33734e-12  8.16278e-11   4.2251e-10 
         -50      1.17431 -2.41571e-07  7.40327e-09  7.70661e-05  2.99657e-10  9.09041e-12  8.53273e-11  3.85043e-10 
         -50      1.21905 -2.22303e-07  9.40078e-09  7.70661e-05  2.60815e-10  8.68307e-12  8.88715e-11  3.49736e-10 
         -50      1.26461 -2.02913e-07  1.17992e-08  7.70661e-05  2.24522e-10  8.20334e-12  9.21718e-11  3.16735e-10 
         -50      1.31103  -1.8363e-07  1.40134e-08   7.7066e-05  1.90841e-10  7.72366e-12   9.5145e-11   2.8602e-10 
         -50      1.35826 -1.64713e-07  1.54401e-08  7.70659e-05  1.59892e-10  7.28338e-12  9.77281e-11  2.57648e-10 
         -50      1.40635 -1.46348e-07  1.55922e-08  7.70657e-05   1.3178e-10  6.86126e-12  9.99387e-11  2.31741e-10 
         -50      1.45525 -1.28732e-07  1.42676e-08  7.70655e-05  1.06872e-10  6.34548e-12  1.01931e-10  2.08821e-10 
         -50      1.50498 -1.11981e-07  1.17835e-08  7.70655e-05  8.58494e-11   5.4921e-12  1.04103e-10  1.89965e-10 
         -50      1.55558 -9.60937e-08   1.2425e-08  7.70655e-05  6.70116e-11  5.22914e-12  1.05158e-10  1.72179e-10 
         -50      1.60699 -8.10781e-08  1.29628e-08  7.70654e-05  5.13155e-11  4.79332e-12  1.06274e-10  1.57596e-10 
         -50      1.65927 -6.69041e-08  1.33255e-08  7.70653e-05  3.91677e-11  4.37309e-12  1.06982e-10  1.46154e-10 
         -50      1.71235 -5.35765e-08  1.35408e-08  7.70651e-05  3.02288e-11   3.9711e-12   1.0729e-10  1.37522e-10 
         -50      1.76629 -4.10656e-08  1.36351e-08   7.7065e-05  2.41292e-11  3.58863e-12  1.07212e-10  1.31343e-10 
         -50      1.82104 -2.93722e-08  1.36314e-08  7.70649e-05  2.05164e-11  3.22752e-12  1.06763e-10  1.27281e-10 
         -50      1.87666 -1.84678e-08  1.35502e-08  7.70647e-05  1.90294e-11  2.88835e-12  1.05961e-10   1.2499e-10 
         -50      1.93309 -8.35021e-09  1.34092e-08  7.70646e-05  1.93197e-11   2.5722e-12  1.04826e-10  1.24146e-10 
         -50      1.99034  1.00337e-09   1.3223e-08  7.70644e-05  2.10462e-11  2.27915e-12  1.03381e-10  1.24427e-10 
         -50      2.04847  9.61461e-09  1.30035e-08  7.70642e-05  2.38851e-11  2.00904e-12   1.0165e-10  1.25535e-10 
         -50       2.1074  1.74908e-08  1.27603e-08   7.7064e-05  2.75249e-11  1.76188e-12  9.96613e-11  1.27187e-10 
         -50      2.16721  2.46599e-08     1.25e-08  7.70638e-05  3.16825e-11  1.53683e-12  9.74403e-11  1.29124e-10 
         -50      2.22781  3.11329e-08  1.22276e-08  7.70636e-05  3.60899e-11  1.33338e-12  9.50185e-11   1.3111e-10 
         -50      2.28928  3.69393e-08  1.19457e-08  7.70634e-05  4.05172e-11  1.15031e-12  9.24223e-11  1.32941e-10 
         -50      2.35156  4.20946e-08  1.16558e-08  7.70632e-05  4.47539e-11  9.86785e-13  8.96845e-11   1.3444e-10 
         -50       2.4147  4.66296e-08  1.13577e-08  7.70629e-05  4.86322e-11  8.41435e-13   8.6831e-11  1.35465e-10 
         -50      2.47865  5.05654e-08  1.10508e-08  7.70626e-05  5.20091e-11  7.13251e-13  8.38939e-11  1.35906e-10 
         -50      2.54347  5.39356e-08  1.07338e-08  7.70624e-05   5.4786e-11    6.009e-13   8.0897e-11  1.35686e-10 
         -50      2.60909  5.67671e-08  1.04059e-08  7.70621e-05  5.68929e-11  5.03403e-13    7.787e-11  1.34766e-10 
         -50      2.67554  5.90955e-08  1.00662e-08  7.70618e-05  5.83012e-11  4.19653e-13  7.48347e-11   1.3314e-10 
         -50      2.74287  6.09577e-08  9.71449e-09  7.70614e-05  5.90152e-11  3.48695e-13   7.1811e-11   1.3083e-10 
         -50        2.811  6.23895e-08  9.35226e-09  7.70611e-05  5.90709e-11  2.89812e-13  6.88212e-11  1.27896e-10 
         -50         2.88  6.34332e-08  8.98137e-09  7.70607e-05  5.85344e-11  2.42241e-13  6.58779e-11  1.24416e-10 
         -50      2.94979  6.41296e-08  8.60577e-09  7.70604e-05   5.7497e-11  2.05416e-13  6.29974e-11  1.20499e-10 
         -50      3.02047  6.45232e-08  8.22973e-09    7.706e-05  5.60668e-11  1.78681e-13  6.01862e-11  1.16257e-10 
         -50      3.09194  6.46576e-08  7.85923e-09  7.70595e-05  5.43652e-11  1.61369e-13  5.74546e-11  1.11824e-10 
         -50      3.16429  6.45767e-08  7.49965e-09  7.70591e-05  5.25107e-11  1.52529e-13  5.48038e-11  1.07319e-10 
         -50      3.23743  6.43226e-08  7.15665e-09  7.70586e-05  5.06155e-11  1.50828e-13  5.22391e-11  1.02859e-10 
         -50       3.3114  6.39343e-08  6.83347e-09  7.70581e-05  4.87636e-11  1.54256e-13  4.97599e-11  9.85277e-11 
         -50      3.38626  6.34448e-08  6.52994e-09  7.70576e-05   4.6998e-11  1.59844e-13  4.73656e-11  9.43677e-11 
         -50      3.46191  6.28804e-08  6.24087e-09  7.70571e-05  4.53044e-11  1.63258e-13  4.50606e-11   9.0369e-11 
         -50      3.53844  6.22555e-08  5.95206e-09  7.70565e-05  4.35819e-11  1.58345e-13   4.2847e-11  8.64328e-11 
         -50      3.61576  6.15714e-08  5.63847e-09   7.7056e-05  4.16262e-11  1.36569e-13  4.07369e-11  8.23669e-11 
         -50      3.69396  6.08093e-08  5.25857e-09  7.70554e-05  3.90912e-11  8.62817e-14  3.87451e-11  7.78401e-11 
         -50      3.77295  5.99711e-08  4.82649e-09  7.70548e-05  3.72086e-11  7.67555e-14  3.68148e-11   7.4027e-11 
         -50      3.85283   5.9173e-08  4.52183e-09  7.70541e-05  3.53889e-11  9.68138e-14  3.49375e-11  7.03299e-11 
         -50      3.93349    5.835e-08  4.23841e-09  7.70534e-05  3.36303e-11  1.02503e-13  3.31582e-11   6.6792e-11 
         -50      4.01504  5.74522e-08  3.96003e-09  7.70527e-05  3.19305e-11  1.07235e-13  3.14652e-11   6.3399e-11 
         -50      4.09737  5.65616e-08  3.67176e-09   7.7052e-05  3.03006e-11  1.05567e-13   2.9853e-11  6.01568e-11 
         -50      4.18054  5.56785e-08  3.38162e-09  7.70512e-05  2.87397e-11  1.00752e-13  2.83157e-11  5.70585e-11 
         -50       4.2646  5.48029e-08  3.09499e-09  7.70505e-05  2.72464e-11  9.50233e-14  2.68482e-11  5.40976e-11 
         -50      4.34945  5.39358e-08  2.81558e-09  7.70497e-05  2.58215e-11  8.97742e-14  2.54489e-11  5.12733e-11 
         -50      4.43518   5.3076e-08  2.54463e-09  7.70488e-05  2.44618e-11  8.56898e-14  2.41132e-11  4.85778e-11 
         -50      4.52169  5.22242e-08  2.28274e-09   7.7048e-05   2.3167e-11   8.2935e-14  2.28405e-11  4.60102e-11 
         -50      4.60909  5.13786e-08  2.02895e-09  7.70471e-05  2.19335e-11  8.12952e-14  2.16271e-11  4.35633e-11 
         -50      4.69728  5.05395e-08  1.78241e-09  7.70461e-05  2.07604e-11  8.03431e-14  2.04728e-11  4.12358e-11 
         -50      4.78636  4.97053e-08  1.54155e-09  7.70452e-05   1.9644e-11  7.95695e-14  1.93744e-11  3.90208e-11 
         -50      4.87621  4.88762e-08  1.30552e-09  7.70442e-05   1.8583e-11  7.85112e-14  1.83313e-11  3.69167e-11 
         -50      4.96691  4.80511e-08  1.07343e-09  7.70432e-05  1.75745e-11   7.6844e-14  1.73409e-11  3.49177e-11 
         -50      5.05849  4.72292e-08  8.44872e-10  7.70421e-05  1.66154e-11  7.44467e-14  1.64006e-11  3.30183e-11 
         -50      5.15086  4.64114e-08  6.20384e-10   7.7041e-05   1.5705e-11  7.14307e-14  1.55091e-11  3.12162e-11 
         -50      5.24411  4.55969e-08  4.00303e-10  7.70399e-05    1.484e-11  6.81033e-14  1.46627e-11  2.95048e-11 
         -50      5.33815  4.47874e-08  1.85534e-10  7.70388e-05  1.40196e-11  6.48971e-14  1.38599e-11  2.78816e-11 
         -50      5.43308  4.39828e-08  -2.4021e-11  7.70376e-05  1.32413e-11  6.22001e-14  1.30971e-11  2.63404e-11 
         -50      5.52879  4.31857e-08 -2.29202e-10  7.70364e-05  1.25044e-11  6.01345e-14   1.2373e-11  2.48793e-11 
         -50       5.6254  4.23973e-08 -4.33644e-10  7.70351e-05  1.18063e-11  5.82144e-14   1.1685e-11  2.34931e-11 
         -50      5.72278  4.16195e-08 -6.24254e-10  7.70338e-05   1.1144e-11  5.60461e-14  1.10373e-11   2.2183e-11 
         -50      5.82099  4.08457e-08 -8.08982e-10  7.70325e-05  1.05168e-11  5.36044e-14  1.04221e-11  2.09406e-11 
         -50      5.92011  4.00784e-08 -9.86492e-10  7.70311e-05   9.9229e-12  5.11822e-14  9.83819e-12  1.97627e-11 
         -50         6.02  3.93238e-08 -1.15577e-09  7.70297e-05  9.36124e-12  4.87519e-14  9.28569e-12  1.86485e-11 
         -50      6.12078  3.85862e-08 -1.31932e-09  7.70283e-05  8.82948e-12  4.63491e-14  8.76295e-12  1.75939e-11 
         -50      6.22234  3.78698e-08 -1.48038e-09  7.70268e-05  8.32671e-12  4.40361e-14  8.26921e-12  1.65973e-11 
         -50       6.3248  3.71752e-08 -1.64171e-09  7.70253e-05  7.85088e-12  4.18434e-14  7.80225e-12  1.56545e-11 
         -50      6.42803  3.65013e-08 -1.80297e-09  7.70237e-05  7.40121e-12  3.97331e-14  7.36099e-12  1.47635e-11 
         -50      6.53216  3.58426e-08 -1.95973e-09  7.70221e-05  6.97595e-12  3.75442e-14  6.94326e-12  1.39205e-11 
         -50      6.63707  3.51926e-08 -2.10119e-09  7.70205e-05  6.57448e-12  3.49595e-14  6.54801e-12  1.31237e-11 
         -50      6.74287  3.45438e-08 -2.21614e-09  7.70188e-05   6.1953e-12  3.17065e-14  6.17354e-12    1.237e-11 
         -50      6.84945   3.3919e-08 -2.37481e-09  7.70171e-05  5.83732e-12  3.00161e-14    5.822e-12  1.16605e-11 
         -50      6.95686  3.32971e-08 -2.51104e-09  7.70153e-05   5.4997e-12  2.80885e-14  5.48956e-12  1.09904e-11 
         -50      7.06517  3.26767e-08 -2.63263e-09  7.70135e-05  5.18106e-12  2.60244e-14   5.1753e-12  1.03574e-11 
         -50      7.17426  3.20577e-08 -2.74514e-09  7.70117e-05  4.88066e-12  2.39011e-14  4.87879e-12  9.76049e-12 
         -50      7.28424  3.14395e-08 -2.85265e-09  7.70098e-05   4.5971e-12  2.17703e-14  4.59885e-12  9.19695e-12 
         -50        7.395  3.08235e-08 -2.95747e-09  7.70078e-05  4.32978e-12  1.96727e-14  4.33498e-12  8.66571e-12 
         -50      7.50666  3.02099e-08 -3.06095e-09  7.70058e-05  4.07749e-12  1.76297e-14    4.086e-12  8.16442e-12 
         -50      7.61908  2.96014e-08  -3.1633e-09  7.70038e-05  3.83976e-12  1.56528e-14  3.85141e-12  7.69206e-12 
         -50      7.73241  2.89999e-08 -3.26433e-09  7.70017e-05  3.61557e-12  1.37294e-14   3.6301e-12  7.24652e-12 
         -50      7.84651  2.84099e-08 -3.36337e-09  7.69996e-05  3.40454e-12   1.1824e-14  3.42154e-12  6.82689e-12 
         -50      7.96145  2.78357e-08 -3.45994e-09  7.69974e-05  3.20599e-12  9.85799e-15   3.2248e-12  6.43157e-12 
         -50      8.07729  2.72796e-08 -3.55233e-09  7.69952e-05  3.01916e-12  7.81235e-15  3.03903e-12  6.05895e-12 
         -50      8.19389  2.67238e-08 -3.63298e-09   7.6993e-05  2.84303e-12  6.59116e-15  2.86396e-12  5.70772e-12 
         -50      8.31141  2.61875e-08 -3.71142e-09  7.69906e-05  2.67724e-12  5.16815e-15  2.69883e-12  5.37677e-12 
         -50      8.42969  2.56682e-08 -3.78687e-09  7.69883e-05  2.52138e-12  3.65283e-15  2.54342e-12  5.06547e-12 
         -50      8.54887  2.51617e-08 -3.85912e-09  7.69859e-05  2.37466e-12  2.12621e-15  2.39711e-12  4.77241e-12 
         -50      8.66882  2.46652e-08 -3.92829e-09  7.69834e-05   2.2367e-12  6.50589e-16  2.25958e-12   4.4969e-12 
         -50      8.78968  2.41748e-08 -3.99492e-09  7.69809e-05  2.10681e-12 -7.35183e-16  2.13016e-12  4.23757e-12 
         -50      8.91131  2.36885e-08 -4.05934e-09  7.69783e-05  1.98467e-12 -2.00657e-15  2.00844e-12  3.99368e-12 
         -50      9.03384  2.32042e-08  -4.1213e-09  7.69757e-05  1.86969e-12 -3.15797e-15  1.89369e-12  3.76394e-12 
         -50      9.15713  2.27229e-08 -4.17878e-09   7.6973e-05  1.76163e-12 -4.19525e-15  1.78545e-12  3.54761e-12 
         -50      9.28126  2.22477e-08 -4.22704e-09  7.69703e-05  1.66009e-12 -5.13972e-15  1.68303e-12  3.34363e-12 
         -50       9.4063  2.17908e-08 -4.27203e-09  7.69675e-05  1.56441e-12 -5.96018e-15  1.58707e-12  3.15198e-12 
         -50       9.5321   2.1348e-08 -4.32551e-09  7.69647e-05  1.47452e-12   -6.824e-15  1.49738e-12  2.97238e-12 
         -50      9.65882  2.09086e-08 -4.37374e-09  7.69618e-05  1.39024e-12 -7.71343e-15   1.4125e-12   2.8032e-12 
         -50      9.78629  2.04743e-08 -4.41657e-09  7.69588e-05  1.31124e-12 -8.56739e-15  1.33244e-12  2.64413e-12 
         -50      9.91468  2.00455e-08 -4.45445e-09  7.69558e-05  1.23705e-12 -9.35099e-15  1.25696e-12  2.49443e-12 
         -50      10.0438  1.96234e-08 -4.48812e-09  7.69528e-05  1.16741e-12 -1.00467e-14  1.18595e-12  2.35377e-12 
         -50      10.1739   1.9208e-08 -4.51857e-09  7.69496e-05  1.10194e-12 -1.06533e-14  1.11913e-12  2.22146e-12 
         -50      10.3047     1.88e-08 -4.54677e-09  7.69465e-05  1.04044e-12 -1.11782e-14  1.05634e-12  2.09715e-12 
         -50      10.4363  1.83995e-08 -4.57363e-09  7.69432e-05  9.82613e-13 -1.16362e-14  9.97324e-13   1.9803e-12 
         -50      10.5689  1.80063e-08 -4.59988e-09  7.69399e-05  9.28218e-13  -1.2044e-14  9.41797e-13  1.87036e-12 
         -50      10.7022  1.76209e-08 -4.62589e-09  7.69366e-05  8.77112e-13 -1.24169e-14  8.89597e-13  1.76704e-12 
         -50      10.8365   1.7243e-08 -4.65175e-09  7.69332e-05  8.29048e-13 -1.27675e-14  8.40434e-13   1.6698e-12 
         -50      10.9715  1.68731e-08 -4.67712e-09  7.69297e-05   7.8391e-13 -1.31023e-14  7.94159e-13  1.57838e-12 
         -50      11.1074  1.65106e-08 -4.70139e-09  7.69261e-05  7.41481e-13 -1.34217e-14  7.50526e-13   1.4923e-12 
         -50      11.2441  1.61561e-08 -4.72358e-09  7.69225e-05  7.01656e-13 -1.37186e-14  7.09417e-13  1.41136e-12 
         -50      11.3816  1.58092e-08 -4.74257e-09  7.69189e-05  6.64239e-13 -1.39809e-14  6.70636e-13  1.33515e-12 
         -50        11.52  1.54704e-08 -4.75721e-09  7.69152e-05   6.2913e-13 -1.41916e-14  6.34102e-13  1.26349e-12 
         -50      11.6592  1.51395e-08 -4.76656e-09  7.69114e-05  5.96162e-13 -1.43337e-14  5.99684e-13   1.1961e-12 
         -50      11.7993  1.48164e-08  -4.7702e-09  7.69075e-05  5.65179e-13 -1.43944e-14  5.67269e-13  1.13269e-12 
         -50      11.9401  1.45015e-08 -4.76857e-09  7.69036e-05  5.36085e-13 -1.43717e-14   5.3681e-13  1.07313e-12 
         -50      12.0819  1.41943e-08 -4.76343e-09  7.68996e-05  5.08715e-13 -1.42825e-14   5.0818e-13  1.01712e-12 
         -50      12.2244  1.38949e-08 -4.75842e-09  7.68956e-05  4.82984e-13 -1.41738e-14  4.81306e-13  9.64505e-13 
         -50      12.3678  1.36025e-08  -4.7597e-09  7.68915e-05  4.58753e-13 -1.41342e-14  4.56018e-13  9.14979e-13 
         -50       12.512  1.33167e-08 -4.77664e-09  7.68873e-05  4.35966e-13 -1.43096e-14  4.32156e-13  8.68322e-13 
         -50      12.6571  1.30355e-08 -4.81151e-09   7.6883e-05  4.14412e-13 -1.44053e-14  4.09691e-13  8.24296e-13 
         -50       12.803  1.27585e-08 -4.82567e-09  7.68787e-05  3.93995e-13 -1.40211e-14  3.88276e-13  7.82457e-13 
         -50      12.9498  1.24877e-08 -4.80383e-09  7.68743e-05  3.74959e-13  -1.4149e-14  3.68003e-13  7.43142e-13 
         -50      13.0973  1.22007e-08 -4.78005e-09  7.68699e-05  3.56825e-13 -1.37585e-14  3.48982e-13  7.05979e-13 
         -50      13.2457  1.19191e-08 -4.76455e-09  7.68654e-05  3.39734e-13 -1.34552e-14  3.31069e-13  6.70968e-13 
         -50       13.395  1.16465e-08 -4.75547e-09  7.68608e-05  3.23692e-13 -1.31849e-14  3.14194e-13  6.38044e-13 
         -50       13.545  1.13835e-08 -4.74995e-09  7.68561e-05  3.08636e-13 -1.29213e-14  2.98312e-13    6.071e-13 
         -50       13.696  1.11298e-08 -4.74578e-09  7.68514e-05  2.94472e-13 -1.26488e-14  2.83338e-13  5.77957e-13 
         -50      13.8477   1.0885e-08 -4.74136e-09  7.68466e-05  2.81144e-13 -1.23609e-14   2.6923e-13  5.50515e-13 
         -50      14.0004  1.06477e-08 -4.73559e-09  7.68417e-05  2.68574e-13 -1.20568e-14  2.55909e-13  5.24619e-13 
         -50      14.1537  1.04173e-08  -4.7278e-09  7.68368e-05  2.56716e-13 -1.17405e-14  2.43336e-13  5.00184e-13 
         -50      14.3081  1.01924e-08 -4.71771e-09  7.68318e-05  2.45506e-13 -1.14173e-14  2.31445e-13  4.77077e-13 
         -50      14.4631  9.97241e-09 -4.70531e-09  7.68267e-05   2.3491e-13 -1.10938e-14  2.20202e-13  4.55234e-13 
         -50       14.619   9.7564e-09 -4.69083e-09  7.68215e-05  2.24881e-13 -1.07749e-14   2.0956e-13  4.34558e-13 
         -50      14.7758  9.54385e-09 -4.67462e-09  7.68163e-05  2.15376e-13 -1.04637e-14  1.99475e-13  4.14964e-13 
         -50      14.9334  9.33487e-09 -4.65715e-09   7.6811e-05  2.06375e-13 -1.01609e-14  1.89929e-13  3.96413e-13 
         -50      15.0919  9.12939e-09 -4.63887e-09  7.68056e-05  1.97841e-13 -9.86337e-15  1.80884e-13   3.7883e-13 
         -50      15.2511  8.92808e-09 -4.62023e-09  7.68002e-05  1.89757e-13 -9.56638e-15  1.72329e-13  3.62188e-13 
         -50      15.4113  8.73128e-09 -4.60156e-09  7.67946e-05  1.82093e-13 -9.26243e-15  1.64234e-13  3.46424e-13 
         -50      15.5722  8.53985e-09 -4.58307e-09   7.6789e-05  1.74834e-13 -8.94438e-15  1.56591e-13  3.31518e-13 
         -50      15.7341  8.35402e-09 -4.56477e-09  7.67833e-05   1.6795e-13  -8.6061e-15  1.49372e-13  3.17412e-13 
         -50      15.8966  8.17402e-09  -4.5465e-09  7.67776e-05  1.61425e-13 -8.24685e-15  1.42567e-13  3.04079e-13 
         -50      16.0602  7.99897e-09 -4.52783e-09  7.67717e-05  1.55225e-13 -7.87336e-15  1.36142e-13  2.91451e-13 
         -50      16.2244  7.82723e-09 -4.50815e-09  7.67658e-05  1.49325e-13 -7.50612e-15  1.30071e-13  2.79478e-13 
         -50      16.3895  7.65533e-09 -4.48655e-09  7.67598e-05  1.43684e-13 -7.18335e-15  1.24305e-13  2.68067e-13 
         -50      16.5555  7.47765e-09 -4.46195e-09  7.67538e-05   1.3825e-13 -6.96837e-15   1.1878e-13  2.57105e-13 
         -50      16.7223  7.29153e-09 -4.43631e-09  7.67476e-05  1.32967e-13  -6.7728e-15  1.13495e-13  2.46535e-13 
         -50        16.89  7.12304e-09 -4.41991e-09  7.67414e-05  1.27828e-13 -6.14249e-15  1.08577e-13  2.36476e-13 
         -50      17.0584  6.95792e-09 -4.39896e-09  7.67351e-05  1.23063e-13 -5.77081e-15  1.03887e-13  2.27018e-13 
         -50      17.2278  6.79786e-09  -4.3755e-09  7.67287e-05  1.18614e-13 -5.53561e-15  9.94153e-14  2.18094e-13 
         -50      17.3979   6.6439e-09 -4.35098e-09  7.67223e-05  1.14441e-13 -5.35192e-15  9.51618e-14  2.09666e-13 
         -50      17.5689  6.49589e-09 -4.32629e-09  7.67157e-05  1.10499e-13 -5.16478e-15  9.11155e-14  2.01676e-13 
         -50      17.7407  6.35347e-09 -4.30195e-09  7.67091e-05  1.06757e-13 -4.94454e-15  8.72747e-14  1.94091e-13 
         -50      17.9133  6.21556e-09 -4.27814e-09  7.67024e-05  1.03183e-13 -4.68068e-15  8.36294e-14  1.86869e-13 
         -50      18.0869  6.08091e-09 -4.25479e-09  7.66956e-05  9.97476e-14 -4.37686e-15  8.01694e-14  1.79972e-13 
         -50      18.2611  5.94846e-09 -4.23173e-09  7.66888e-05  9.64358e-14 -4.04678e-15  7.68896e-14  1.73379e-13 
         -50      18.4364  5.81693e-09 -4.20866e-09  7.66818e-05   9.3228e-14 -3.70846e-15  7.37764e-14  1.67056e-13 
         -50      18.6123  5.68558e-09 -4.18531e-09  7.66748e-05  9.01176e-14 -3.38193e-15  7.08233e-14  1.60991e-13 
         -50      18.7892  5.55375e-09 -4.16141e-09  7.66677e-05  8.70948e-14 -3.08421e-15  6.80157e-14  1.55159e-13 
         -50      18.9669  5.42149e-09  -4.1368e-09  7.66605e-05  8.41622e-14 -2.82817e-15   6.5346e-14  1.49555e-13 
         -50      19.1454  5.28906e-09 -4.11135e-09  7.66532e-05  8.13191e-14 -2.61905e-15  6.27998e-14  1.44164e-13 
         -50      19.3247  5.15754e-09 -4.08508e-09  7.66459e-05  7.85756e-14 -2.45445e-15  6.03694e-14  1.38988e-13 
         -50       19.505  5.02823e-09 -4.05804e-09  7.66385e-05  7.59387e-14 -2.32291e-15  5.80416e-14  1.34022e-13 
         -50      19.6859  4.90317e-09 -4.03036e-09   7.6631e-05  7.34247e-14 -2.20538e-15  5.58102e-14  1.29275e-13 
         -50      19.8677  4.78457e-09 -4.00212e-09  7.66234e-05  7.10475e-14 -2.07618e-15   5.3666e-14  1.24752e-13 
         -50      20.0505  4.67488e-09 -3.97325e-09  7.66157e-05  6.88229e-14 -1.90607e-15  5.16024e-14  1.20463e-13 
         -50       20.234  4.57679e-09 -3.94357e-09  7.66079e-05  6.67716e-14 -1.66664e-15  4.96193e-14  1.16427e-13 
         -50      20.4184  4.46907e-09 -3.92054e-09  7.66001e-05  6.46896e-14 -1.37627e-15  4.77885e-14  1.12513e-13 
         -50      20.6035  4.36886e-09 -3.90068e-09  7.65921e-05   6.2735e-14   -1.089e-15   4.6057e-14  1.08826e-13 
         -50      20.7896  4.28105e-09 -3.88048e-09  7.65841e-05  6.09039e-14 -8.58436e-16  4.44163e-14  1.05354e-13 
         -50      20.9765  4.20197e-09  -3.8568e-09   7.6576e-05  5.91722e-14 -7.47114e-16  4.28974e-14  1.02102e-13 
         -50      21.1642  4.12598e-09 -3.82387e-09  7.65678e-05  5.75022e-14 -8.52537e-16  4.15436e-14  9.90774e-14 
         -50      21.3527  4.00469e-09 -3.79591e-09  7.65596e-05  5.57289e-14 -7.21727e-16  3.99402e-14  9.56995e-14 
         -50      21.5421   3.8691e-09 -3.76411e-09  7.65512e-05  5.39507e-14 -5.45024e-16  3.84434e-14  9.24233e-14 
         -50      21.7323  3.73833e-09 -3.72798e-09  7.65428e-05  5.22524e-14 -4.94286e-16  3.71891e-14  8.94693e-14 
         -50      21.9233  3.61426e-09 -3.69256e-09  7.65343e-05  5.06861e-14  -4.9576e-16  3.60472e-14  8.67601e-14 
         -50      22.1153  3.55919e-09 -3.67962e-09  7.65257e-05  4.91998e-14 -1.69583e-16  3.47867e-14  8.40128e-14 
         -50       22.308  3.50453e-09 -3.66537e-09   7.6517e-05   4.7619e-14  1.20818e-16  3.36008e-14  8.12455e-14 
         -50      22.5016  3.43749e-09 -3.64589e-09  7.65082e-05  4.61969e-14    3.155e-16  3.24761e-14  7.86981e-14 
         -50      22.6959  3.36075e-09 -3.62213e-09  7.64994e-05  4.48908e-14  4.30406e-16  3.14097e-14  7.63249e-14 
         -50      22.8912  3.27773e-09 -3.59504e-09  7.64905e-05  4.36633e-14  4.86794e-16  3.03971e-14  7.40841e-14 
         -50      23.0872  3.19225e-09 -3.56569e-09  7.64814e-05  4.24874e-14  5.07765e-16  2.94366e-14  7.19469e-14 
         -50      23.2841  3.10757e-09 -3.53514e-09  7.64723e-05  4.13404e-14  5.16042e-16  2.85247e-14  6.98872e-14 
         -50      23.4819  3.02616e-09 -3.50444e-09  7.64632e-05  4.02062e-14  5.31616e-16  2.76571e-14  6.78847e-14 
         -50      23.6804  2.94956e-09 -3.47466e-09  7.64539e-05  3.90762e-14  5.69924e-16  2.68305e-14  6.59275e-14 
         -50      23.8799  2.87789e-09 -3.44668e-09  7.64445e-05  3.79452e-14  6.40538e-16   2.6039e-14  6.40044e-14 
         -50      24.0801  2.81036e-09 -3.42116e-09  7.64351e-05  3.68162e-14  7.46012e-16  2.52787e-14  6.21145e-14 
         -50      24.2813  2.74519e-09 -3.39833e-09  7.64256e-05  3.56961e-14  8.81801e-16  2.45444e-14  6.02596e-14 
         -50      24.4831  2.68043e-09 -3.37788e-09   7.6416e-05  3.46011e-14  1.03591e-15  2.38349e-14  5.84546e-14 
         -50       24.686  2.61442e-09 -3.35868e-09  7.64063e-05  3.35529e-14  1.19024e-15  2.31506e-14  5.67217e-14 
         -50      24.8895  2.54715e-09 -3.33857e-09  7.63965e-05  3.25848e-14  1.32137e-15  2.24996e-14  5.51021e-14 
         -50       25.094  2.48117e-09 -3.31402e-09  7.63867e-05  3.17386e-14  1.40329e-15  2.18964e-14  5.36522e-14 
         -50      25.2992   2.4236e-09 -3.27988e-09  7.63767e-05  3.10711e-14  1.40982e-15  2.13682e-14   5.2456e-14 
         -50      25.5052  2.35558e-09 -3.24402e-09  7.63667e-05  3.03702e-14  1.33359e-15  2.08502e-14  5.12365e-14 
         -50      25.7123  2.24359e-09 -3.22996e-09  7.63566e-05  2.93457e-14  1.31874e-15  2.02328e-14  4.95939e-14 
         -50        25.92  2.16875e-09 -3.20835e-09  7.63464e-05  2.84577e-14  1.40487e-15  1.96585e-14  4.81312e-14 
         -50      26.1287  2.12678e-09 -3.18331e-09  7.63361e-05  2.76919e-14  1.52812e-15  1.91278e-14  4.68343e-14 
         -50       26.338  2.10667e-09 -3.15756e-09  7.63258e-05  2.70153e-14  1.64484e-15  1.86394e-14  4.56691e-14 
         -50      26.5484  2.09239e-09 -3.13206e-09  7.63154e-05  2.63793e-14  1.73427e-15  1.81877e-14  4.45812e-14 