Variables = x, y, u, v, p

Zone, I=416, F=POINT
         -50            0            0            0      56.6651 
         -50     0.013333 -2.63135e-05  9.92182e-09      56.6651 
         -50     0.053333 -2.06874e-05  2.89183e-08      56.6651 
         -50         0.12 -1.59682e-05  1.86844e-07      56.6651 
         -50     0.213332 -1.02596e-05  5.65812e-07      56.6651 
         -50     0.333332 -3.37226e-06  1.13994e-06       56.665 
         -50         0.48  3.68342e-06   1.4246e-06      56.6649 
         -50     0.653331  9.44314e-06  1.69193e-06      56.6647 
         -50     0.853332  1.15149e-05  3.39364e-06      56.6644 
         -50         1.08  8.28384e-06  3.65838e-06       56.664 
         -50      1.33333  1.88181e-07  3.52374e-06      56.6635 
         -50      1.61333 -1.16945e-05  3.59183e-06      56.6627 
         -50         1.92 -3.09807e-05  2.44128e-06      56.6617 
         -50      2.25333 -3.65851e-05  4.11631e-06      56.6604 
         -50      2.61333 -2.99387e-05   5.3861e-06      56.6588 
         -50            3 -2.85147e-05  8.60833e-07      56.6568 
         -25            0 -1.49456e-20  5.24148e-24       54.399 
         -25     0.013333 -2.41288e-05 -3.52917e-09       54.399 
         -25     0.053333 -2.96652e-05 -1.30978e-07       54.399 
         -25         0.12 -3.24349e-05 -6.21871e-07       54.399 
         -25     0.213332 -2.84955e-05 -1.70363e-06       54.399 
         -25     0.333332 -2.22818e-05 -3.35436e-06      54.3989 
         -25         0.48 -1.89339e-05 -5.44484e-06      54.3989 
         -25     0.653331 -1.93814e-05  -7.7857e-06      54.3988 
         -25     0.853332 -2.11192e-05  -1.0128e-05      54.3987 
         -25         1.08  -2.1277e-05 -1.21008e-05      54.3986 
         -25      1.33333 -2.00233e-05 -1.35994e-05      54.3984 
         -25      1.61333  -1.7342e-05 -1.44986e-05      54.3981 
         -25         1.92  -1.0415e-05 -1.36418e-05      54.3977 
         -25      2.25333 -7.05332e-06 -1.34874e-05      54.3972 
         -25      2.61333 -1.33985e-05 -1.42224e-05      54.3966 
         -25            3  -2.3234e-05 -1.30747e-05      54.3958 
           0            0 -4.33526e-16  2.15066e-16      52.5528 
           0     0.013333  -9.6391e-05  3.51338e-05      52.5543 
           0     0.053333 -4.01802e-05  2.08653e-05      52.5574 
           0         0.12 -2.23651e-05  1.16697e-05      52.5608 
           0     0.213332 -8.23798e-06  8.85382e-06      52.5644 
           0     0.333332  3.57714e-06  5.78073e-06      52.5681 
           0         0.48  1.04887e-05  2.78885e-06      52.5717 
           0     0.653331  1.23493e-05 -2.15834e-07      52.5753 
           0     0.853332  9.23873e-06 -3.25583e-06      52.5787 
           0         1.08  2.83883e-06 -6.25889e-06      52.5819 
           0      1.33333 -3.63086e-06 -9.03563e-06      52.5851 
           0      1.61333 -9.29034e-06 -1.12949e-05       52.588 
           0         1.92 -1.46603e-05 -1.28834e-05      52.5907 
           0      2.25333 -1.63581e-05 -1.35353e-05      52.5933 
           0      2.61333 -1.19996e-05 -1.28133e-05      52.5956 
           0            3 -8.85277e-06 -1.32812e-05      52.5978 
          20            0           -0           -0      51.4064 
          20     0.013333 -5.63572e-05 -1.94768e-09      51.4064 
          20     0.053333 -0.000148145 -2.41004e-07      51.4064 
          20         0.12 -0.000232169 -1.84917e-06      51.4063 
          20     0.213332 -0.000262922 -6.96122e-06      51.4063 
          20     0.333332 -0.000244176 -1.67907e-05      51.4063 
          20         0.48 -0.000191729 -2.98999e-05      51.4063 
          20     0.653331 -0.000134317 -4.50574e-05      51.4062 
          20     0.853332 -0.000109405 -6.32303e-05      51.4061 
          20         1.08  -9.1755e-05 -8.16874e-05      51.4059 
          20      1.33333 -6.43796e-05 -9.70413e-05      51.4056 
          20      1.61333 -3.23678e-05 -0.000107564      51.4053 
          20         1.92 -1.79854e-06 -0.000112109      51.4049 
          20      2.25333  1.87826e-05 -0.000110743      51.4044 
          20      2.61333  2.61642e-05 -0.000104655      51.4038 
          20            3  2.80098e-05 -9.34643e-05      51.4031 
          40            0           -0           -0      50.2242 
          40     0.013333 -5.44509e-05  1.02006e-08      50.2242 
          40     0.053333 -0.000153896  5.53019e-08      50.2242 
          40         0.12 -0.000267631  -2.5398e-07      50.2242 
          40     0.213332 -0.000344782 -2.12896e-06      50.2242 
          40     0.333332 -0.000371235 -6.98411e-06      50.2242 
          40         0.48 -0.000370685 -1.55195e-05      50.2242 
          40     0.653331 -0.000368926 -2.73421e-05      50.2241 
          40     0.853332 -0.000362425 -4.07923e-05      50.2241 
          40         1.08 -0.000326765 -5.36926e-05      50.2241 
          40      1.33333 -0.000254912 -6.43073e-05       50.224 
          40      1.61333 -0.000165572 -7.20829e-05       50.224 
          40         1.92 -7.43725e-05 -7.57187e-05      50.2239 
          40      2.25333 -2.88642e-06 -7.55451e-05      50.2238 
          40      2.61333  4.42538e-05 -7.19127e-05      50.2237 
          40            3  7.37777e-05 -6.49374e-05      50.2235 
          60            0           -0           -0      49.1079 
          60     0.013333 -1.96015e-05  8.18935e-08      49.1079 
          60     0.053333 -5.10221e-05  1.18239e-06      49.1079 
          60         0.12 -0.000130978  5.05244e-06      49.1079 
          60     0.213332 -0.000237854  1.25078e-05      49.1079 
          60     0.333332  -0.00032499  2.25803e-05      49.1079 
          60         0.48 -0.000366191  3.38186e-05      49.1079 
          60     0.653331 -0.000359089  4.58328e-05      49.1079 
          60     0.853332 -0.000309187  5.88485e-05      49.1079 
          60         1.08 -0.000238932  7.19473e-05      49.1079 
          60      1.33333 -0.000173521  8.35136e-05      49.1079 
          60      1.61333 -0.000112898  9.21091e-05      49.1078 
          60         1.92 -4.56283e-05   9.6687e-05      49.1078 
          60      2.25333  6.59878e-06   9.6567e-05      49.1077 
          60      2.61333  3.89748e-05  9.23394e-05      49.1077 
          60            3  5.54871e-05  8.53693e-05      49.1076 
          80            0           -0           -0       48.027 
          80     0.013333 -1.88679e-06  7.08127e-08       48.027 
          80     0.053333  1.38808e-05  1.04376e-06       48.027 
          80         0.12 -4.88211e-06  4.59215e-06       48.027 
          80     0.213332 -5.92105e-05  1.18258e-05       48.027 
          80     0.333332 -0.000117277    2.243e-05       48.027 
          80         0.48 -0.000150691  3.54961e-05       48.027 
          80     0.653331 -0.000146965  5.06704e-05       48.027 
          80     0.853332  -0.00010826  6.76463e-05       48.027 
          80         1.08 -6.55729e-05  8.44683e-05       48.027 
          80      1.33333 -4.59258e-05  9.85416e-05       48.027 
          80      1.61333 -3.38117e-05  0.000108812      48.0269 
          80         1.92 -1.66816e-05  0.000114238      48.0269 
          80      2.25333 -5.10478e-06  0.000114461      48.0269 
          80      2.61333  2.95395e-06  0.000110067      48.0268 
          80            3  9.56394e-06   0.00010171      48.0268 
         100            0 -5.21687e-21  2.62832e-25      46.9681 
         100     0.013333 -3.60947e-06  3.54816e-08      46.9681 
         100     0.053333  1.44978e-05   5.3932e-07      46.9681 
         100         0.12  1.37002e-05  2.47537e-06      46.9681 
         100     0.213332 -1.05872e-05  6.64274e-06      46.9681 
         100     0.333332 -3.95988e-05  1.29819e-05      46.9681 
         100         0.48 -5.45017e-05  2.07761e-05      46.9681 
         100     0.653331 -5.13285e-05  2.93833e-05       46.968 
         100     0.853332 -3.68439e-05  3.83415e-05       46.968 
         100         1.08 -2.39427e-05  4.68083e-05       46.968 
         100      1.33333 -1.91136e-05  5.37528e-05       46.968 
         100      1.61333 -1.51126e-05  5.87069e-05       46.968 
         100         1.92 -1.02538e-05  6.09988e-05       46.968 
         100      2.25333 -1.03707e-05  6.03757e-05       46.968 
         100      2.61333 -1.26719e-05  5.72611e-05      46.9679 
         100            3 -1.26086e-05  5.24935e-05      46.9679 
         150            0           -0           -0      44.3715 
         150     0.013333 -3.74151e-05  7.87145e-08      44.3715 
         150     0.053333 -0.000114583  1.09436e-06      44.3715 
         150         0.12 -0.000241514  4.38143e-06      44.3715 
         150     0.213332 -0.000373988   1.0028e-05      44.3715 
         150     0.333332 -0.000464003  1.66087e-05      44.3715 
         150         0.48 -0.000501273  2.27655e-05      44.3715 
         150     0.653331 -0.000498784  2.85306e-05      44.3715 
         150     0.853332 -0.000457946  3.51284e-05      44.3715 
         150         1.08  -0.00037922  4.31769e-05      44.3715 
         150      1.33333 -0.000288386   5.1577e-05      44.3715 
         150      1.61333 -0.000199557  5.85745e-05      44.3715 
         150         1.92 -0.000103394  6.34359e-05      44.3715 
         150      2.25333 -1.94103e-05   6.5895e-05      44.3715 
         150      2.61333   4.6967e-05  6.56628e-05      44.3715 
         150            3  9.54239e-05  6.29382e-05      44.3715 
         200            0            0            0      41.8066 
         200     0.013333 -5.61147e-05  -1.9129e-08      41.8066 
         200     0.053333 -0.000153728 -3.99729e-07      41.8066 
         200         0.12 -0.000237817 -2.48431e-06      41.8066 
         200     0.213332 -0.000251871 -8.47836e-06      41.8066 
         200     0.333332 -0.000206625 -1.97402e-05      41.8066 
         200         0.48 -0.000156373 -3.55408e-05      41.8066 
         200     0.653331 -0.000134301 -5.38096e-05      41.8066 
         200     0.853332 -0.000128005 -7.21309e-05      41.8066 
         200         1.08 -0.000108373  -8.8427e-05      41.8066 
         200      1.33333 -7.48226e-05 -0.000101838      41.8066 
         200      1.61333 -4.33335e-05 -0.000112411      41.8066 
         200         1.92 -1.56051e-05 -0.000119174      41.8066 
         200      2.25333  7.26835e-06 -0.000121227      41.8066 
         200      2.61333  2.46224e-05  -0.00011868      41.8066 
         200            3   3.6844e-05 -0.000112042      41.8066 
         250            0           -0           -0      39.2518 
         250     0.013333 -2.96405e-05  -2.0047e-07      39.2518 
         250     0.053333  -1.7058e-05  -2.9868e-06      39.2518 
         250         0.12  0.000118559 -1.32438e-05      39.2518 
         250     0.213332  0.000366154 -3.43005e-05      39.2518 
         250     0.333332  0.000602111 -6.48407e-05      39.2518 
         250         0.48  0.000725387 -0.000100831      39.2518 
         250     0.653331  0.000723542 -0.000139708      39.2518 
         250     0.853332  0.000625831 -0.000181035      39.2518 
         250         1.08  0.000483778 -0.000223052      39.2518 
         250      1.33333  0.000361928 -0.000261474      39.2518 
         250      1.61333  0.000264209 -0.000292632      39.2518 
         250         1.92  0.000153705 -0.000314301      39.2518 
         250      2.25333  4.98246e-05 -0.000324555      39.2518 
         250      2.61333 -3.88535e-05 -0.000322702      39.2518 
         250            3 -0.000112035 -0.000309701      39.2518 
         300            0            0            0       36.699 
         300     0.013333 -6.68583e-05 -2.13242e-07       36.699 
         300     0.053333 -0.000145366 -3.22173e-06       36.699 
         300         0.12 -0.000102583 -1.46161e-05       36.699 
         300     0.213332  0.000102488 -3.90381e-05       36.699 
         300     0.333332  0.000360723 -7.65287e-05       36.699 
         300         0.48  0.000542628 -0.000123587       36.699 
         300     0.653331  0.000596808 -0.000177256       36.699 
         300     0.853332  0.000529996 -0.000236461       36.699 
         300         1.08  0.000392079 -0.000298855       36.699 
         300      1.33333  0.000270762 -0.000358747       36.699 
         300      1.61333  0.000194456 -0.000410373       36.699 
         300         1.92  0.000115272 -0.000449966       36.699 
         300      2.25333  4.00855e-05   -0.0004745       36.699 
         300      2.61333 -2.49347e-05 -0.000482053       36.699 
         300            3 -7.81018e-05 -0.000472473      36.6989 
         350            0           -0           -0      34.1454 
         350     0.013333 -4.89752e-05 -8.61301e-08      34.1454 
         350     0.053333 -0.000114476 -1.33502e-06      34.1454 
         350         0.12   -0.0001323 -6.25349e-06      34.1454 
         350     0.213332 -6.83656e-05 -1.72085e-05      34.1454 
         350     0.333332  3.20746e-05 -3.45108e-05      34.1454 
         350         0.48  0.000102741 -5.65189e-05      34.1454 
         350     0.653331  0.000114651  -8.1545e-05      34.1454 
         350     0.853332  7.51258e-05 -0.000108657      34.1454 
         350         1.08  1.76222e-05 -0.000136284      34.1454 
         350      1.33333 -1.27921e-05 -0.000161515      34.1454 
         350      1.61333 -1.26284e-05 -0.000182179      34.1454 
         350         1.92 -1.36438e-05 -0.000197423      34.1454 
         350      2.25333 -1.69775e-05 -0.000206256      34.1454 
         350      2.61333 -2.00168e-05 -0.000207946      34.1454 
         350            3 -2.19153e-05 -0.000202365      34.1454 
         400            0           -0           -0      31.5903 
         400     0.013333 -7.05185e-05 -7.57107e-10      31.5903 
         400     0.053333 -0.000214922 -9.81608e-08      31.5903 
         400         0.12 -0.000378907 -9.99181e-07      31.5903 
         400     0.213332 -0.000487382 -4.33999e-06      31.5903 
         400     0.333332  -0.00051405 -1.18015e-05      31.5903 
         400         0.48 -0.000489709 -2.39243e-05      31.5903 
         400     0.653331 -0.000460189 -4.00295e-05      31.5903 
         400     0.853332 -0.000445758 -5.87381e-05      31.5903 
         400         1.08 -0.000428926 -7.80122e-05      31.5903 
         400      1.33333 -0.000380316 -9.55808e-05      31.5903 
         400      1.61333   -0.0003036 -0.000110388      31.5903 
         400         1.92  -0.00022083 -0.000122289      31.5903 
         400      2.25333 -0.000136778 -0.000130462      31.5903 
         400      2.61333 -5.60229e-05 -0.000134399      31.5903 
         400            3  1.42498e-05 -0.000133813      31.5903 
         450            0            0            0       29.034 
         450     0.013333  3.18047e-05  2.76886e-08       29.034 
         450     0.053333  0.000139169  4.84513e-07       29.034 
         450         0.12  0.000237594  2.63854e-06       29.034 
         450     0.213332  0.000267606  8.43598e-06       29.034 
         450     0.333332  0.000225346  1.93293e-05       29.034 
         450         0.48  0.000156984  3.52261e-05       29.034 
         450     0.653331   0.00010845  5.47936e-05       29.034 
         450     0.853332   9.1354e-05  7.63956e-05       29.034 
         450         1.08  8.82769e-05  9.84708e-05       29.034 
         450      1.33333  7.86559e-05  0.000119651       29.034 
         450      1.61333  5.87342e-05  0.000138969       29.034 
         450         1.92  3.67318e-05  0.000155403       29.034 
         450      2.25333  1.46681e-05  0.000167799       29.034 
         450      2.61333 -6.67093e-06  0.000175146       29.034 
         450            3 -2.53317e-05  0.000176842       29.034 
         500            0           -0           -0       26.476 
         500     0.013333 -1.43297e-06 -1.03077e-07       26.476 
         500     0.053333  5.83422e-05 -1.50313e-06       26.476 
         500         0.12  0.000193631 -6.47568e-06       26.476 
         500     0.213332  0.000377298 -1.62477e-05       26.476 
         500     0.333332  0.000533779 -2.97125e-05       26.476 
         500         0.48  0.000612603 -4.46594e-05       26.476 
         500     0.653331  0.000618032 -6.00066e-05       26.476 
         500     0.853332  0.000569498 -7.64106e-05       26.476 
         500         1.08  0.000477586 -9.47129e-05       26.476 
         500      1.33333  0.000370204 -0.000113881       26.476 
         500      1.61333  0.000281758 -0.000131428       26.476 
         500         1.92  0.000201638 -0.000145807       26.476 
         500      2.25333  0.000120179 -0.000156395       26.476 
         500      2.61333  3.96414e-05 -0.000162395       26.476 
         500            3 -3.29283e-05  -0.00016323       26.476 
         550            0            0            0      23.9156 
         550     0.013333 -9.09247e-05  2.47889e-08      23.9156 
         550     0.053333 -0.000295537  2.56515e-07      23.9156 
         550         0.12  -0.00054645  3.94786e-07      23.9156 
         550     0.213332 -0.000735731 -1.33307e-06      23.9156 
         550     0.333332 -0.000803291 -7.46701e-06      23.9156 
         550         0.48 -0.000774163 -1.94127e-05      23.9156 
         550     0.653331 -0.000715322 -3.66046e-05      23.9156 
         550     0.853332 -0.000668758 -5.71381e-05      23.9156 
         550         1.08 -0.000624308 -7.84088e-05      23.9156 
         550      1.33333 -0.000549322 -9.79404e-05      23.9156 
         550      1.61333 -0.000444479 -0.000114796      23.9156 
         550         1.92 -0.000336356 -0.000129328      23.9156 
         550      2.25333 -0.000227159  -0.00014091      23.9156 
         550      2.61333  -0.00011706 -0.000148749      23.9156 
         550            3 -1.20158e-05 -0.000152159      23.9156 
         600            0           -0           -0       21.354 
         600     0.013333  2.99223e-05 -3.84532e-08       21.354 
         600     0.053333  0.000155407 -5.26509e-07       21.354 
         600         0.12  0.000336475 -2.05058e-06       21.354 
         600     0.213332    0.0005225 -4.46917e-06       21.354 
         600     0.333332  0.000661385 -6.72298e-06       21.354 
         600         0.48  0.000734946 -7.59296e-06       21.354 
         600     0.653331  0.000760599 -6.51469e-06       21.354 
         600     0.853332  0.000761251 -3.81853e-06       21.354 
         600         1.08  0.000738841 -6.29298e-07       21.354 
         600      1.33333  0.000678858  1.72169e-06       21.354 
         600      1.61333  0.000581367  2.63708e-06       21.354 
         600         1.92  0.000466692   2.6406e-06       21.354 
         600      2.25333  0.000342545  2.19299e-06       21.354 
         600      2.61333  0.000212505  1.39667e-06       21.354 
         600            3  8.33873e-05  2.85272e-07       21.354 
         650            0            0            0      18.7896 
         650     0.013333  2.76282e-05 -6.33359e-09      18.7896 
         650     0.053333  0.000137804 -5.87325e-08      18.7896 
         650         0.12  0.000277114 -1.10278e-08      18.7896 
         650     0.213332  0.000394676   8.4464e-07      18.7896 
         650     0.333332  0.000453624  3.65972e-06      18.7896 
         650         0.48  0.000453916  9.36917e-06      18.7896 
         650     0.653331  0.000423829  1.81654e-05      18.7896 
         650     0.853332  0.000391244  2.95614e-05      18.7896 
         650         1.08  0.000364984  4.26995e-05      18.7896 
         650      1.33333  0.000337347  5.66338e-05      18.7896 
         650      1.61333  0.000298557  7.05952e-05      18.7896 
         650         1.92  0.000246665  8.37001e-05      18.7896 
         650      2.25333  0.000185786  9.53929e-05      18.7896 
         650      2.61333  0.000119937  0.000104791      18.7896 
         650            3  5.24707e-05  0.000111191      18.7896 
         700            0           -0           -0      16.2226 
         700     0.013333  2.61004e-05  2.57643e-08      16.2226 
         700     0.053333  0.000120372  4.26069e-07      16.2226 
         700         0.12  0.000208938  2.20787e-06      16.2226 
         700     0.213332  0.000236529  6.90064e-06      16.2226 
         700     0.333332  0.000188206   1.5876e-05      16.2226 
         700         0.48  9.55761e-05  2.95438e-05      16.2226 
         700     0.653331  4.72739e-06  4.72323e-05      16.2226 
         700     0.853332 -5.65889e-05  6.78398e-05      16.2226 
         700         1.08 -8.28918e-05  9.04999e-05      16.2226 
         700      1.33333 -8.15657e-05  0.000114537      16.2226 
         700      1.61333 -6.94501e-05  0.000138903      16.2226 
         700         1.92 -6.14528e-05  0.000162064      16.2226 
         700      2.25333 -5.63377e-05  0.000182635      16.2226 
         700      2.61333 -5.09239e-05  0.000199252      16.2226 
         700            3 -4.48114e-05  0.000210838      16.2226 
         750            0            0            0      13.6523 
         750     0.013333 -7.63085e-05  9.64061e-08      13.6523 
         750     0.053333 -0.000269715  1.36974e-06      13.6523 
         750         0.12 -0.000576434  5.65968e-06      13.6523 
         750     0.213332 -0.000913246   1.3397e-05      13.6523 
         750     0.333332  -0.00117008  2.26205e-05      13.6523 
         750         0.48  -0.00129315  3.05135e-05      13.6523 
         750     0.653331  -0.00130868  3.57445e-05      13.6523 
         750     0.853332  -0.00126486  3.92188e-05      13.6523 
         750         1.08  -0.00117695  4.30309e-05      13.6523 
         750      1.33333  -0.00104343  4.84899e-05      13.6523 
         750      1.61333 -0.000885437  5.49181e-05      13.6523 
         750         1.92 -0.000725178  6.07315e-05      13.6523 
         750      2.25333 -0.000557129  6.55841e-05      13.6524 
         750      2.61333 -0.000379737  6.90634e-05      13.6524 
         750            3 -0.000199998  7.08443e-05      13.6524 
         800            0           -0           -0      11.0805 
         800     0.013333 -7.34022e-06 -7.79785e-08      11.0805 
         800     0.053333  3.02235e-05 -1.13615e-06      11.0805 
         800         0.12  0.000125162 -4.90062e-06      11.0805 
         800     0.213332  0.000262617 -1.23601e-05      11.0805 
         800     0.333332  0.000386793 -2.28184e-05      11.0805 
         800         0.48  0.000456172 -3.47211e-05      11.0805 
         800     0.653331  0.000472309 -4.72735e-05      11.0805 
         800     0.853332  0.000450892 -6.11101e-05      11.0805 
         800         1.08  0.000390675 -7.75772e-05      11.0805 
         800      1.33333  0.000294012 -9.69899e-05      11.0805 
         800      1.61333  0.000198948 -0.000117381      11.0805 
         800         1.92  0.000136311 -0.000136039      11.0805 
         800      2.25333  8.58147e-05 -0.000151948      11.0805 
         800      2.61333  3.40377e-05 -0.000164481      11.0805 
         800            3 -1.55199e-05 -0.000172917      11.0805 
         850            0           -0           -0      8.50645 
         850     0.013333 -3.95052e-05  5.77959e-08      8.50645 
         850     0.053333  -0.00012559  8.31809e-07      8.50645 
         850         0.12 -0.000274233  3.51302e-06      8.50645 
         850     0.213332 -0.000448426  8.58266e-06      8.50645 
         850     0.333332 -0.000587816  1.51279e-05      8.50645 
         850         0.48 -0.000656434  2.15786e-05      8.50645 
         850     0.653331 -0.000663979  2.70444e-05      8.50645 
         850     0.853332 -0.000637569  3.18933e-05      8.50645 
         850         1.08 -0.000586329  3.73344e-05      8.50645 
         850      1.33333 -0.000507068  4.42332e-05      8.50645 
         850      1.61333 -0.000415938  5.19426e-05      8.50645 
         850         1.92 -0.000337749  5.88837e-05      8.50645 
         850      2.25333 -0.000263641  6.43875e-05      8.50645 
         850      2.61333 -0.000185821  6.83475e-05      8.50646 
         850            3 -0.000105903   7.0658e-05      8.50646 
         900            0           -0           -0       5.9313 
         900     0.013333 -6.21771e-05 -4.78842e-09       5.9313 
         900     0.053333 -0.000189409 -1.02819e-07       5.9313 
         900         0.12 -0.000344671 -6.94118e-07       5.9313 
         900     0.213332 -0.000465143 -2.68532e-06       5.9313 
         900     0.333332 -0.000511444 -7.29577e-06       5.9313 
         900         0.48 -0.000486202 -1.54754e-05       5.9313 
         900     0.653331 -0.000422616 -2.74451e-05       5.9313 
         900     0.853332 -0.000357201 -4.28139e-05       5.9313 
         900         1.08  -0.00031234 -6.10329e-05       5.9313 
         900      1.33333 -0.000291382 -8.14675e-05       5.9313 
         900      1.61333 -0.000276533 -0.000102943       5.9313 
         900         1.92 -0.000244746  -0.00012357       5.9313 
         900      2.25333 -0.000200162 -0.000142631       5.9313 
         900      2.61333 -0.000150639 -0.000158939      5.93131 
         900            3  -9.9465e-05   -0.0001715      5.93131 
         950            0           -0           -0      3.35391 
         950     0.013333  -0.00012458 -7.51007e-08      3.35391 
         950     0.053333 -0.000387073 -1.24992e-06      3.35391 
         950         0.12 -0.000628479 -6.52011e-06      3.35391 
         950     0.213332 -0.000685447 -2.03873e-05      3.35391 
         950     0.333332 -0.000525848 -4.65956e-05      3.35391 
         950         0.48 -0.000259703 -8.56891e-05      3.35391 
         950     0.653331 -3.07234e-05 -0.000134997      3.35391 
         950     0.853332   8.8364e-05 -0.000190761      3.35391 
         950         1.08  0.000111934 -0.000249743      3.35391 
         950      1.33333  9.85024e-05 -0.000309125      3.35391 
         950      1.61333  9.33391e-05 -0.000366587      3.35391 
         950         1.92  9.73841e-05 -0.000420755      3.35391 
         950      2.25333  9.66245e-05 -0.000469535      3.35391 
         950      2.61333  8.96816e-05  -0.00051075      3.35392 
         950            3  7.99181e-05 -0.000541842      3.35392 
        1000            0           -0           -0     0.775101 
        1000     0.013333  5.82802e-05 -2.07099e-07     0.775101 
        1000     0.053333  0.000314733 -2.98778e-06     0.775101 
        1000         0.12  0.000802114 -1.27708e-05     0.775101 
        1000     0.213332   0.00144272 -3.17805e-05     0.775101 
        1000     0.333332   0.00203309 -5.73236e-05     0.775102 
        1000         0.48   0.00239871 -8.38037e-05     0.775102 
        1000     0.653331   0.00251402 -0.000107348     0.775103 
        1000     0.853332   0.00245495 -0.000128279     0.775104 
        1000         1.08   0.00227888 -0.000149933     0.775104 
        1000      1.33333   0.00200161 -0.000175021     0.775104 
        1000      1.61333   0.00166891 -0.000202437     0.775102 
        1000         1.92   0.00135148 -0.000228358     0.775097 
        1000      2.25333   0.00103991 -0.000249863     0.775087 
        1000      2.61333  0.000716079 -0.000266031     0.775073 
        1000            3  0.000381884 -0.000276168     0.775053 
