Variables = x, y, u, v, p

Zone, I=416, F=POINT
         -50            0            0            0      108.504 
         -50     0.013333  0.000513409  1.04007e-07      108.504 
         -50     0.053333  0.000477691  3.61474e-07      108.504 
         -50         0.12  0.000469916  6.53707e-07      108.504 
         -50     0.213332  0.000475746  8.35047e-07      108.504 
         -50     0.333332  0.000483712  1.28394e-06      108.504 
         -50         0.48   0.00048838  1.81082e-06      108.503 
         -50     0.653331  0.000489464  1.42308e-06      108.503 
         -50     0.853332  0.000487248  2.02188e-06      108.503 
         -50         1.08  0.000482807  2.62298e-06      108.502 
         -50      1.33333  0.000478639  2.99774e-06      108.501 
         -50      1.61333   0.00047828   4.8155e-06      108.499 
         -50         1.92  0.000476877  6.75724e-06      108.497 
         -50      2.25333  0.000481123  9.89154e-06      108.495 
         -50      2.61333  0.000481993  9.48771e-06      108.492 
         -50            3  0.000470954  2.97471e-06      108.488 
         -25            0           -0           -0      104.203 
         -25     0.013333   0.00037978  4.34765e-08      104.203 
         -25     0.053333  0.000361305  1.97669e-07      104.203 
         -25         0.12   0.00036001  5.81284e-07      104.203 
         -25     0.213332  0.000360886  1.37352e-06      104.203 
         -25     0.333332  0.000358341  2.67766e-06      104.203 
         -25         0.48  0.000354625  4.49905e-06      104.203 
         -25     0.653331  0.000353183  6.86641e-06      104.203 
         -25     0.853332  0.000353039  9.16177e-06      104.203 
         -25         1.08  0.000352302  1.14422e-05      104.203 
         -25      1.33333  0.000351923  1.34809e-05      104.202 
         -25      1.61333  0.000352256  1.54263e-05      104.202 
         -25         1.92  0.000352824  1.65967e-05      104.201 
         -25      2.25333  0.000354527  1.91969e-05        104.2 
         -25      2.61333  0.000356593  2.05335e-05      104.199 
         -25            3  0.000354681  1.50284e-05      104.197 
           0            0            0            0      100.659 
           0     0.013333   0.00102644 -0.000602217      100.664 
           0     0.053333  0.000620226 -0.000319114       100.67 
           0         0.12  0.000478361 -0.000212508      100.677 
           0     0.213332  0.000417255 -0.000163074      100.685 
           0     0.333332  0.000384582 -0.000132137      100.693 
           0         0.48  0.000360313  -0.00010899        100.7 
           0     0.653331    0.0003429 -9.12823e-05      100.708 
           0     0.853332  0.000330008 -7.72499e-05      100.715 
           0         1.08  0.000320376  -6.5864e-05      100.723 
           0      1.33333  0.000313811  -5.6445e-05      100.729 
           0      1.61333  0.000310236 -4.85478e-05      100.736 
           0         1.92  0.000309645 -4.17306e-05      100.742 
           0      2.25333  0.000310625 -3.56761e-05      100.748 
           0      2.61333  0.000312331 -2.98107e-05      100.754 
           0            3  0.000311722 -2.60671e-05      100.759 
          20            0   0.00019532  0.000106476      98.5446 
          20     0.013333  0.000200579  0.000106508      98.5446 
          20     0.053333  0.000216308  0.000106402      98.5446 
          20         0.12  0.000241698  0.000105532      98.5445 
          20     0.213332  0.000273177  0.000102783      98.5443 
          20     0.333332  0.000302425  9.67209e-05      98.5442 
          20         0.48  0.000319953  8.60746e-05      98.5439 
          20     0.653331   0.00032682  7.10785e-05      98.5436 
          20     0.853332  0.000335577  5.33848e-05      98.5432 
          20         1.08  0.000350583  3.48492e-05      98.5428 
          20      1.33333  0.000364304  1.66192e-05      98.5422 
          20      1.61333  0.000371996   -2.022e-07      98.5415 
          20         1.92   0.00037123 -1.44704e-05      98.5407 
          20      2.25333  0.000364266 -2.51162e-05      98.5398 
          20      2.61333  0.000353091 -3.17551e-05      98.5387 
          20            3  0.000344136 -3.16953e-05      98.5375 
          40            0            0            0      96.3473 
          40     0.013333  0.000114804  9.01137e-09      96.3473 
          40     0.053333 -0.000307246 -5.52375e-07      96.3473 
          40         0.12 -0.000725558 -5.32203e-06      96.3473 
          40     0.213332  -0.00096951  -2.1139e-05      96.3473 
          40     0.333332  -0.00106228 -5.27929e-05      96.3473 
          40         0.48  -0.00110598 -9.85473e-05      96.3472 
          40     0.653331  -0.00110369 -0.000151509      96.3472 
          40     0.853332  -0.00104126 -0.000208349      96.3471 
          40         1.08 -0.000901853 -0.000267217       96.347 
          40      1.33333 -0.000628094 -0.000316382      96.3468 
          40      1.61333 -0.000280356 -0.000348101      96.3465 
          40         1.92  6.70776e-05 -0.000359684      96.3462 
          40      2.25333  0.000350751  -0.00035168      96.3458 
          40      2.61333  0.000529189 -0.000329088      96.3453 
          40            3  0.000602161 -0.000296426      96.3447 
          60            0            0            0      94.2032 
          60     0.013333  0.000274805 -9.86936e-09      94.2032 
          60     0.053333   0.00028541 -1.54408e-07      94.2032 
          60         0.12  0.000309574 -3.08788e-07      94.2032 
          60     0.213332  0.000310913  5.36944e-07      94.2032 
          60     0.333332  0.000279093  3.71267e-06      94.2032 
          60         0.48     0.000243  9.54744e-06      94.2032 
          60     0.653331  0.000227503  1.67164e-05      94.2032 
          60     0.853332   0.00021742  2.29643e-05      94.2031 
          60         1.08  0.000206492  2.84291e-05      94.2031 
          60      1.33333  0.000213334  3.54311e-05       94.203 
          60      1.61333  0.000227865  4.38849e-05      94.2029 
          60         1.92  0.000236342  5.19713e-05      94.2028 
          60      2.25333  0.000241199  5.85915e-05      94.2027 
          60      2.61333   0.00024465  6.29493e-05      94.2025 
          60            3  0.000246049  6.47535e-05      94.2023 
          80            0           -0           -0      92.1415 
          80     0.013333  0.000255195  -5.9207e-08      92.1415 
          80     0.053333  0.000252513 -9.60696e-07      92.1415 
          80         0.12  0.000311443 -4.52193e-06      92.1415 
          80     0.213332  0.000417749 -1.22926e-05      92.1415 
          80     0.333332  0.000515773   -2.389e-05      92.1415 
          80         0.48  0.000563146 -3.70862e-05      92.1415 
          80     0.653331  0.000566633 -4.93814e-05      92.1415 
          80     0.853332  0.000549501 -5.97409e-05      92.1415 
          80         1.08  0.000497151 -6.99172e-05      92.1415 
          80      1.33333  0.000414085 -8.08008e-05      92.1414 
          80      1.61333  0.000344148 -8.94319e-05      92.1414 
          80         1.92  0.000279984 -9.41283e-05      92.1413 
          80      2.25333  0.000222604 -9.45619e-05      92.1413 
          80      2.61333  0.000178231 -9.11846e-05      92.1412 
          80            3  0.000149813 -8.54477e-05       92.141 
         100            0           -0           -0      90.1249 
         100     0.013333  0.000243916 -3.17475e-07      90.1249 
         100     0.053333   0.00028379 -4.75917e-06      90.1249 
         100         0.12  0.000518894  -2.0972e-05      90.1249 
         100     0.213332  0.000881548 -5.32653e-05      90.1249 
         100     0.333332   0.00116361 -9.77287e-05      90.1249 
         100         0.48   0.00123718 -0.000147133      90.1249 
         100     0.653331   0.00111983 -0.000197354      90.1249 
         100     0.853332  0.000919164 -0.000244732      90.1249 
         100         1.08  0.000761058 -0.000282987      90.1249 
         100      1.33333  0.000633567 -0.000310248      90.1248 
         100      1.61333  0.000486803 -0.000326777      90.1248 
         100         1.92  0.000333264 -0.000330397      90.1248 
         100      2.25333  0.000194846 -0.000320019      90.1247 
         100      2.61333  9.11059e-05 -0.000297217      90.1246 
         100            3  3.04494e-05 -0.000266189      90.1245 
         150            0            0            0      85.1839 
         150     0.013333  0.000353981  1.31381e-07      85.1839 
         150     0.053333  0.000582432  2.00959e-06      85.1839 
         150         0.12  0.000806277  9.32454e-06      85.1839 
         150     0.213332  0.000916525  2.57381e-05      85.1839 
         150     0.333332  0.000916348  5.29978e-05      85.1839 
         150         0.48  0.000872387  9.14092e-05      85.1839 
         150     0.653331   0.00085884  0.000141223      85.1839 
         150     0.853332  0.000910962   0.00020149      85.1839 
         150         1.08  0.000949557  0.000265579      85.1839 
         150      1.33333  0.000860719  0.000322238      85.1839 
         150      1.61333  0.000697936  0.000366095      85.1839 
         150         1.92  0.000535208  0.000395677      85.1839 
         150      2.25333  0.000375201  0.000407788      85.1839 
         150      2.61333  0.000230663  0.000402057      85.1838 
         150            3  0.000122603  0.000380721      85.1838 
         200            0           -0           -0      80.3064 
         200     0.013333  0.000261267    2.578e-08      80.3064 
         200     0.053333  0.000272364  4.61512e-07      80.3064 
         200         0.12  0.000265789  2.51072e-06      80.3064 
         200     0.213332  0.000215455   7.6892e-06      80.3064 
         200     0.333332  0.000147959  1.63014e-05      80.3064 
         200         0.48  0.000106905  2.69449e-05      80.3064 
         200     0.653331  0.000104596  3.77182e-05      80.3064 
         200     0.853332  0.000118483  4.69286e-05      80.3064 
         200         1.08  0.000119598  5.30743e-05      80.3064 
         200      1.33333  0.000111922   5.5819e-05      80.3064 
         200      1.61333  0.000118119  5.62384e-05      80.3064 
         200         1.92  0.000133157  5.47331e-05      80.3064 
         200      2.25333  0.000155633  5.10712e-05      80.3064 
         200      2.61333  0.000182563  4.57799e-05      80.3064 
         200            3  0.000208398  3.93791e-05      80.3063 
         250            0           -0           -0      75.4513 
         250     0.013333  0.000445154  2.44936e-07      75.4513 
         250     0.053333  0.000860424  4.04181e-06      75.4513 
         250         0.12   0.00114736  2.04997e-05      75.4513 
         250     0.213332    0.0010516  6.10826e-05      75.4513 
         250     0.333332  0.000664931   0.00013142      75.4513 
         250         0.48  0.000275569  0.000227591      75.4513 
         250     0.653331  7.72347e-05  0.000341071      75.4513 
         250     0.853332  6.85767e-05  0.000463232      75.4513 
         250         1.08  0.000122617  0.000584869      75.4513 
         250      1.33333  0.000135862   0.00069657      75.4513 
         250      1.61333  0.000120033  0.000791449      75.4513 
         250         1.92  0.000112548  0.000863092      75.4513 
         250      2.25333  0.000114455  0.000904161      75.4513 
         250      2.61333  0.000121452  0.000911224      75.4513 
         250            3  0.000132469  0.000885377      75.4513 
         300            0           -0           -0      70.6046 
         300     0.013333  0.000427016  5.64439e-08      70.6046 
         300     0.053333  0.000860122  1.13461e-06      70.6046 
         300         0.12   0.00133516  6.85347e-06      70.6046 
         300     0.213332    0.0016329  2.30927e-05      70.6046 
         300     0.333332   0.00171752  5.40533e-05      70.6046 
         300         0.48   0.00170546  9.97041e-05      70.6046 
         300     0.653331   0.00171605  0.000157369      70.6046 
         300     0.853332    0.0017668  0.000222419      70.6046 
         300         1.08   0.00174708  0.000286464      70.6046 
         300      1.33333   0.00155314  0.000340151      70.6046 
         300      1.61333   0.00125629  0.000380902      70.6046 
         300         1.92  0.000945473   0.00040944      70.6046 
         300      2.25333  0.000626996  0.000423098      70.6046 
         300      2.61333  0.000322149  0.000420865      70.6046 
         300            3  7.10904e-05  0.000403407      70.6046 
         350            0            0            0      65.7601 
         350     0.013333  0.000225937  2.92315e-07      65.7601 
         350     0.053333  8.22308e-05   4.2981e-06      65.7601 
         350         0.12 -0.000255747   1.8713e-05      65.7601 
         350     0.213332 -0.000733661  4.74579e-05      65.7601 
         350     0.333332  -0.00115446  8.77097e-05      65.7601 
         350         0.48  -0.00137712  0.000133313      65.7601 
         350     0.653331  -0.00139755  0.000181098      65.7601 
         350     0.853332  -0.00126001  0.000231872      65.7601 
         350         1.08  -0.00102087  0.000285211      65.7601 
         350      1.33333 -0.000771787  0.000336275      65.7601 
         350      1.61333 -0.000552181  0.000379742      65.7601 
         350         1.92 -0.000323425  0.000413151      65.7601 
         350      2.25333 -8.11198e-05  0.000434023      65.7601 
         350      2.61333  0.000152935  0.000440295      65.7601 
         350            3  0.000350001  0.000431629      65.7601 
         400            0            0            0      60.9179 
         400     0.013333  0.000155287  3.38504e-07      60.9179 
         400     0.053333 -0.000176118  4.83291e-06      60.9179 
         400         0.12 -0.000736159  2.00418e-05      60.9179 
         400     0.213332  -0.00135018  4.75008e-05      60.9179 
         400     0.333332  -0.00175359   8.0622e-05      60.9179 
         400         0.48  -0.00184922   0.00011137      60.9179 
         400     0.653331   -0.0017238  0.000138398      60.9179 
         400     0.853332  -0.00145879   0.00016676      60.9179 
         400         1.08  -0.00109803  0.000199426      60.9179 
         400      1.33333 -0.000759533  0.000230926      60.9179 
         400      1.61333 -0.000511685  0.000254162      60.9179 
         400         1.92 -0.000271748  0.000268342       60.918 
         400      2.25333 -1.85302e-05   0.00027383       60.918 
         400      2.61333  0.000226508  0.000269905       60.918 
         400            3  0.000433879   0.00025659       60.918 
         450            0            0            0      56.0777 
         450     0.013333  0.000410802  2.85994e-07      56.0777 
         450     0.053333  0.000743827  4.41903e-06      56.0777 
         450         0.12  0.000963549  2.07138e-05      56.0777 
         450     0.213332  0.000883317  5.75119e-05      56.0777 
         450     0.333332  0.000585944  0.000117489      56.0777 
         450         0.48  0.000279634  0.000197493      56.0777 
         450     0.653331  0.000112173  0.000293715      56.0777 
         450     0.853332  0.000140651  0.000404595      56.0777 
         450         1.08  0.000323751  0.000526614      56.0777 
         450      1.33333  0.000480706   0.00064856      56.0777 
         450      1.61333  0.000485013  0.000757315      56.0777 
         450         1.92  0.000435216  0.000847313      56.0777 
         450      2.25333  0.000383398  0.000914154      56.0777 
         450      2.61333  0.000332434  0.000952616      56.0777 
         450            3  0.000280278  0.000959255      56.0777 
         500            0           -0           -0      51.2373 
         500     0.013333  9.00008e-05  2.41069e-07      51.2373 
         500     0.053333 -0.000396776  3.41519e-06      51.2373 
         500         0.12  -0.00112571   1.3971e-05      51.2373 
         500     0.213332  -0.00188033  3.23112e-05      51.2373 
         500     0.333332  -0.00239041  5.22967e-05      51.2373 
         500         0.48   -0.0025535  6.60223e-05      51.2373 
         500     0.653331  -0.00246699  7.04552e-05      51.2373 
         500     0.853332  -0.00225727  6.84707e-05      51.2373 
         500         1.08   -0.0019755  6.42702e-05      51.2373 
         500      1.33333  -0.00165751  5.84696e-05      51.2373 
         500      1.61333   -0.0013363  4.94707e-05      51.2373 
         500         1.92  -0.00098701  3.77174e-05      51.2373 
         500      2.25333  -0.00060152  2.45098e-05      51.2374 
         500      2.61333 -0.000200801  1.07292e-05      51.2374 
         500            3  0.000176286 -3.03587e-06      51.2374 
         550            0            0            0      46.4003 
         550     0.013333  0.000480768 -1.19007e-07      46.4003 
         550     0.053333   0.00110162 -1.39423e-06      46.4003 
         550         0.12   0.00190629 -3.75978e-06      46.4003 
         550     0.213332   0.00256974 -2.36331e-06      46.4003 
         550     0.333332   0.00289857  1.02791e-05      46.4003 
         550         0.48   0.00295501  3.80997e-05      46.4003 
         550     0.653331   0.00292253  7.88652e-05      46.4003 
         550     0.853332   0.00289171   0.00012593      46.4003 
         550         1.08   0.00278278  0.000169981      46.4003 
         550      1.33333   0.00248411  0.000203266      46.4003 
         550      1.61333   0.00205449  0.000225526      46.4003 
         550         1.92   0.00162313  0.000241301      46.4003 
         550      2.25333   0.00118436  0.000251024      46.4002 
         550      2.61333  0.000734124  0.000253564      46.4002 
         550            3  0.000305389  0.000248104      46.4002 
         600            0            0            0      41.5626 
         600     0.013333  0.000292719 -3.36762e-07      41.5626 
         600     0.053333   0.00050325 -4.99139e-06      41.5626 
         600         0.12   0.00101754 -2.19995e-05      41.5626 
         600     0.213332   0.00173926 -5.65372e-05      41.5626 
         600     0.333332   0.00237307  -0.00010535      41.5626 
         600         0.48   0.00268624 -0.000159574      41.5626 
         600     0.653331   0.00267163 -0.000212996      41.5626 
         600     0.853332   0.00243782 -0.000265622      41.5626 
         600         1.08   0.00208332 -0.000319146      41.5626 
         600      1.33333   0.00172197  -0.00037047      41.5626 
         600      1.61333   0.00144136 -0.000413453      41.5626 
         600         1.92    0.0011867  -0.00044572      41.5626 
         600      2.25333  0.000905855 -0.000467061      41.5626 
         600      2.61333  0.000602525 -0.000476083      41.5626 
         600            3  0.000308298 -0.000471163      41.5625 
         650            0            0            0      36.7237 
         650     0.013333 -1.31031e-05  7.02881e-07      36.7237 
         650     0.053333 -0.000909618  1.01788e-05      36.7237 
         650         0.12  -0.00247808  4.33977e-05      36.7237 
         650     0.213332  -0.00435713  0.000107339      36.7237 
         650     0.333332  -0.00588069  0.000192121      36.7237 
         650         0.48  -0.00663302  0.000279288      36.7237 
         650     0.653331  -0.00669403  0.000357878      36.7237 
         650     0.853332  -0.00633146  0.000430621      36.7237 
         650         1.08  -0.00567826   0.00050702      36.7237 
         650      1.33333   -0.0048161  0.000589864      36.7237 
         650      1.61333  -0.00392011  0.000670671      36.7237 
         650         1.92  -0.00306846  0.000739629      36.7238 
         650      2.25333  -0.00217758  0.000792121      36.7238 
         650      2.61333  -0.00123039  0.000825431      36.7238 
         650            3  -0.00029326  0.000836547      36.7239 
         700            0            0            0      31.8915 
         700     0.013333  0.000218977 -8.67417e-07      31.8915 
         700     0.053333  0.000400326 -1.29206e-05      31.8915 
         700         0.12   0.00128614 -5.77057e-05      31.8915 
         700     0.213332   0.00288784 -0.000152187      31.8915 
         700     0.333332    0.0046344 -0.000295252      31.8915 
         700         0.48   0.00590122 -0.000471008      31.8915 
         700     0.653331    0.0064733 -0.000664718      31.8915 
         700     0.853332   0.00643776 -0.000873219      31.8915 
         700         1.08   0.00589546  -0.00110082      31.8915 
         700      1.33333   0.00500818  -0.00134437      31.8915 
         700      1.61333   0.00409281  -0.00158627      31.8915 
         700         1.92   0.00331342  -0.00180611      31.8915 
         700      2.25333   0.00253606    -0.001992      31.8915 
         700      2.61333   0.00170213  -0.00213301      31.8914 
         700            3  0.000864351  -0.00221831      31.8914 
         750            0  6.96616e-19  4.56121e-27      27.0554 
         750     0.013333  0.000455033   3.0408e-07      27.0554 
         750     0.053333  0.000904191  4.67165e-06      27.0554 
         750         0.12   0.00127034  2.18084e-05      27.0554 
         750     0.213332   0.00131974  6.05674e-05      27.0554 
         750     0.333332   0.00110863  0.000124213      27.0554 
         750         0.48  0.000850846  0.000209781      27.0554 
         750     0.653331  0.000706702  0.000313014      27.0554 
         750     0.853332  0.000737634  0.000432445      27.0554 
         750         1.08  0.000946267  0.000567694      27.0554 
         750      1.33333   0.00122045   0.00071285      27.0554 
         750      1.61333   0.00134618  0.000854245      27.0554 
         750         1.92   0.00126201   0.00098003      27.0554 
         750      2.25333    0.0011028   0.00108547      27.0554 
         750      2.61333  0.000930662   0.00116576      27.0554 
         750            3   0.00073912   0.00121532      27.0554 
         800            0            0            0      22.2221 
         800     0.013333  0.000243435 -2.12795e-07      22.2221 
         800     0.053333  0.000299856 -3.23064e-06      22.2221 
         800         0.12  0.000580924 -1.48273e-05      22.2221 
         800     0.213332   0.00109985 -4.02903e-05      22.2221 
         800     0.333332   0.00168754 -8.02316e-05      22.2221 
         800         0.48   0.00212739 -0.000130071      22.2221 
         800     0.653331   0.00232473  -0.00018389      22.2221 
         800     0.853332   0.00231851 -0.000238336      22.2221 
         800         1.08   0.00218071  -0.00029306      22.2221 
         800      1.33333   0.00196608 -0.000347843      22.2221 
         800      1.61333    0.0017307 -0.000400117      22.2221 
         800         1.92   0.00150729 -0.000446275      22.2221 
         800      2.25333   0.00126563 -0.000483989      22.2221 
         800      2.61333  0.000991923 -0.000511424      22.2221 
         800            3  0.000700707 -0.000526616      22.2221 
         850            0           -0           -0      17.3903 
         850     0.013333  0.000707625 -5.98302e-08      17.3903 
         850     0.053333   0.00191299 -3.98794e-07      17.3903 
         850         0.12   0.00340723  1.64982e-06      17.3903 
         850     0.213332   0.00456184  1.59395e-05      17.3903 
         850     0.333332    0.0049867  5.66232e-05      17.3903 
         850         0.48    0.0047734  0.000132708      17.3903 
         850     0.653331   0.00431524  0.000242181      17.3903 
         850     0.853332   0.00392326  0.000374828      17.3903 
         850         1.08   0.00363602  0.000517888      17.3903 
         850      1.33333   0.00332274  0.000660464      17.3903 
         850      1.61333    0.0029072  0.000796213      17.3903 
         850         1.92   0.00243112  0.000922459      17.3903 
         850      2.25333   0.00192638   0.00103597      17.3903 
         850      2.61333   0.00139508   0.00113034      17.3903 
         850            3  0.000844882    0.0011987      17.3902 
         900            0            0            0      12.5557 
         900     0.013333   5.7682e-05   7.1377e-07      12.5557 
         900     0.053333 -0.000676478  1.04915e-05      12.5557 
         900         0.12   -0.0021253  4.58776e-05      12.5557 
         900     0.213332  -0.00406777  0.000117572      12.5557 
         900     0.333332  -0.00585622  0.000219889      12.5557 
         900         0.48  -0.00694051  0.000335589      12.5557 
         900     0.653331  -0.00725122  0.000451011      12.5557 
         900     0.853332  -0.00702023  0.000565247      12.5557 
         900         1.08  -0.00641731   0.00068648      12.5557 
         900      1.33333  -0.00553215  0.000819263      12.5557 
         900      1.61333  -0.00456444  0.000955931      12.5557 
         900         1.92  -0.00371051   0.00108231      12.5557 
         900      2.25333  -0.00288107   0.00119082      12.5557 
         900      2.61333  -0.00199397   0.00127657      12.5558 
         900            3   -0.0010603   0.00133435      12.5558 
         950            0            0            0      7.72621 
         950     0.013333   -0.0003961 -3.39208e-07      7.72621 
         950     0.053333  -0.00197543 -5.70385e-06       7.7262 
         950         0.12  -0.00358633 -2.99744e-05       7.7262 
         950     0.213332    -0.004391 -9.40835e-05       7.7262 
         950     0.333332   -0.0041558 -0.000215465       7.7262 
         950         0.48  -0.00331355 -0.000397549       7.7262 
         950     0.653331  -0.00249157 -0.000630738       7.7262 
         950     0.853332  -0.00206696  -0.00090187       7.7262 
         950         1.08  -0.00206215  -0.00119856       7.7262 
         950      1.33333   -0.0022069  -0.00150513       7.7262 
         950      1.61333  -0.00214707  -0.00180172       7.7262 
         950         1.92  -0.00180115  -0.00207248      7.72621 
         950      2.25333  -0.00137142   -0.0023131      7.72622 
         950      2.61333 -0.000942708  -0.00251286      7.72624 
         950            3 -0.000498302  -0.00265854      7.72626 
        1000            0  2.79715e-19  2.86547e-25      2.89886 
        1000     0.013333  0.000285822 -4.28998e-07      2.89886 
        1000     0.053333  0.000517713 -6.33384e-06      2.89886 
        1000         0.12    0.0011686 -2.79428e-05      2.89886 
        1000     0.213332   0.00220066 -7.29062e-05      2.89886 
        1000     0.333332   0.00329963 -0.000140465      2.89886 
        1000         0.48   0.00413733 -0.000223325      2.89886 
        1000     0.653331   0.00460235 -0.000314526      2.89887 
        1000     0.853332    0.0047537   -0.0004123      2.89887 
        1000         1.08   0.00463843 -0.000520244      2.89887 
        1000      1.33333   0.00424024  -0.00064283      2.89887 
        1000      1.61333   0.00362393 -0.000778406      2.89887 
        1000         1.92   0.00300233 -0.000915642      2.89886 
        1000      2.25333   0.00243362  -0.00104356      2.89884 
        1000      2.61333   0.00186907   -0.0011546      2.89882 
        1000            3    0.0012674  -0.00124308      2.89879 
