Variables = x, y, u, v, p

Zone, I=416, F=POINT
         -50            0            0            0    -0.130767 
         -50     0.013333  0.000265757  4.28585e-08    -0.130767 
         -50     0.053333  0.000220386  2.82544e-07    -0.130767 
         -50         0.12   0.00017956  6.82652e-07    -0.130766 
         -50     0.213332  0.000148413  9.74486e-07    -0.130764 
         -50     0.333332  0.000127616  1.09993e-06    -0.130763 
         -50         0.48  0.000113373  1.47961e-07    -0.130761 
         -50     0.653331  0.000107129 -9.15289e-07    -0.130758 
         -50     0.853332  0.000116271 -1.99239e-06    -0.130755 
         -50         1.08  0.000141132 -2.03697e-06    -0.130751 
         -50      1.33333  0.000175783 -1.53393e-06    -0.130745 
         -50      1.61333  0.000214741 -4.36768e-07    -0.130739 
         -50         1.92  0.000247179  8.61194e-07    -0.130731 
         -50      2.25333  0.000275038  4.17921e-06    -0.130723 
         -50      2.61333  0.000294307  8.86941e-06    -0.130713 
         -50            3  0.000298222  1.20517e-05    -0.130702 
         -25            0           -0           -0    -0.127462 
         -25     0.013333  0.000202048   1.4254e-08    -0.127462 
         -25     0.053333  0.000190061  4.94287e-08    -0.127462 
         -25         0.12  0.000190153  2.10351e-08    -0.127462 
         -25     0.213332  0.000198252 -1.89902e-07    -0.127461 
         -25     0.333332  0.000209977 -6.43053e-07    -0.127461 
         -25         0.48     0.000221 -1.20203e-06     -0.12746 
         -25     0.653331  0.000228357 -1.90066e-06    -0.127459 
         -25     0.853332  0.000229537 -2.77309e-06    -0.127458 
         -25         1.08  0.000223925  -3.7056e-06    -0.127456 
         -25      1.33333  0.000213829 -4.64428e-06    -0.127454 
         -25      1.61333  0.000202091 -5.24861e-06    -0.127452 
         -25         1.92  0.000190647 -5.20618e-06     -0.12745 
         -25      2.25333  0.000187953 -4.67454e-06    -0.127447 
         -25      2.61333   0.00018942 -4.40333e-06    -0.127444 
         -25            3  0.000185976 -4.91899e-06    -0.127441 
           0            0            0            0    -0.125945 
           0     0.013333  0.000610253 -0.000340489    -0.125462 
           0     0.053333  0.000347937 -0.000181131     -0.12546 
           0         0.12  0.000261987 -0.000115231    -0.125452 
           0     0.213332  0.000221594 -8.95883e-05    -0.125425 
           0     0.333332  0.000197568 -7.37629e-05      -0.1254 
           0         0.48  0.000179342 -6.19666e-05    -0.125374 
           0     0.653331  0.000165507 -5.32521e-05     -0.12535 
           0     0.853332  0.000155069  -4.6708e-05    -0.125328 
           0         1.08  0.000150662 -4.16073e-05    -0.125307 
           0      1.33333  0.000153343 -3.73686e-05    -0.125287 
           0      1.61333  0.000159892 -3.36524e-05    -0.125268 
           0         1.92  0.000165663 -3.03434e-05    -0.125251 
           0      2.25333  0.000161731 -2.76722e-05    -0.125235 
           0      2.61333  0.000149268 -2.59449e-05    -0.125219 
           0            3   0.00013895 -2.45337e-05    -0.125205 
          20            0  0.000305163 -0.000126642    -0.123475 
          20     0.013333  0.000298779 -0.000126521    -0.123475 
          20     0.053333   0.00027975 -0.000125889    -0.123474 
          20         0.12   0.00024922 -0.000123888    -0.123473 
          20     0.213332  0.000211754 -0.000118988    -0.123471 
          20     0.333332  0.000177881 -0.000109052    -0.123469 
          20         0.48  0.000160025 -9.21197e-05    -0.123467 
          20     0.653331   0.00015624  -6.8132e-05    -0.123465 
          20     0.853332  0.000144484 -3.98221e-05    -0.123464 
          20         1.08  0.000112058 -1.09354e-05    -0.123465 
          20      1.33333  7.09221e-05  1.60779e-05    -0.123468 
          20      1.61333  3.18722e-05  3.93723e-05    -0.123475 
          20         1.92  1.97574e-06  5.73905e-05    -0.123484 
          20      2.25333 -1.20208e-05  6.94126e-05    -0.123496 
          20      2.61333 -4.16713e-06  7.64977e-05    -0.123509 
          20            3  1.38461e-05  7.72034e-05    -0.123523 
          40            0            0            0    -0.122404 
          40     0.013333  0.000211702 -9.88924e-08    -0.122404 
          40     0.053333  0.000397107 -1.53885e-06    -0.122404 
          40         0.12  0.000714763 -6.81067e-06    -0.122404 
          40     0.213332   0.00107473 -1.71603e-05    -0.122403 
          40     0.333332   0.00134639 -3.06128e-05    -0.122403 
          40         0.48   0.00147558 -4.31979e-05    -0.122402 
          40     0.653331   0.00153386 -5.08804e-05    -0.122402 
          40     0.853332   0.00155758 -5.26687e-05    -0.122402 
          40         1.08   0.00143676 -5.24751e-05    -0.122402 
          40      1.33333   0.00115895 -5.32366e-05    -0.122405 
          40      1.61333  0.000810076 -5.37216e-05     -0.12241 
          40         1.92  0.000455549 -5.27728e-05     -0.12242 
          40      2.25333  0.000154015 -5.02227e-05    -0.122432 
          40      2.61333 -5.13065e-05 -4.52519e-05    -0.122448 
          40            3 -0.000151482 -3.83225e-05    -0.122465 
          60            0            0            0    -0.121953 
          60     0.013333  5.31966e-05 -4.74284e-07    -0.121954 
          60     0.053333 -5.50784e-05 -7.20935e-06    -0.121954 
          60         0.12  0.000114779 -3.25358e-05    -0.121954 
          60     0.213332   0.00057578 -8.52972e-05    -0.121954 
          60     0.333332   0.00105266 -0.000162902    -0.121954 
          60         0.48   0.00129021 -0.000257565    -0.121954 
          60     0.653331   0.00119744 -0.000366387    -0.121953 
          60     0.853332  0.000863072 -0.000486531    -0.121953 
          60         1.08  0.000545686 -0.000605263    -0.121955 
          60      1.33333  0.000369419 -0.000707298    -0.121959 
          60      1.61333  0.000255806 -0.000781356    -0.121965 
          60         1.92  0.000143658 -0.000818473    -0.121975 
          60      2.25333  4.60656e-05 -0.000815251    -0.121988 
          60      2.61333 -1.77036e-05 -0.000776059    -0.122003 
          60            3  -4.3715e-05 -0.000711205    -0.122018 
          80            0           -0           -0    -0.121648 
          80     0.013333  0.000110073 -4.94168e-07    -0.121648 
          80     0.053333  0.000140741 -7.20799e-06    -0.121648 
          80         0.12  0.000413765 -3.07596e-05    -0.121648 
          80     0.213332  0.000847307 -7.58062e-05    -0.121648 
          80     0.333332   0.00119182 -0.000136441    -0.121648 
          80         0.48   0.00129847 -0.000205604    -0.121647 
          80     0.653331   0.00111605 -0.000284556    -0.121646 
          80     0.853332  0.000661438  -0.00037532    -0.121647 
          80         1.08  0.000235017 -0.000462447     -0.12165 
          80      1.33333  9.18127e-05 -0.000526044    -0.121657 
          80      1.61333  4.89133e-05 -0.000564066    -0.121668 
          80         1.92 -1.40686e-05 -0.000578074    -0.121684 
          80      2.25333 -6.12479e-05 -0.000566149    -0.121705 
          80      2.61333 -7.59652e-05 -0.000531231    -0.121727 
          80            3 -6.90616e-05 -0.000480669    -0.121751 
         100            0           -0           -0    -0.121435 
         100     0.013333  0.000206636 -3.68329e-07    -0.121435 
         100     0.053333  0.000451782 -5.09657e-06    -0.121435 
         100         0.12  0.000880888 -2.01059e-05    -0.121435 
         100     0.213332   0.00131879 -4.50014e-05    -0.121435 
         100     0.333332   0.00158399 -7.28846e-05    -0.121434 
         100         0.48   0.00165391 -9.92828e-05    -0.121433 
         100     0.653331   0.00154972 -0.000127982    -0.121432 
         100     0.853332   0.00124245 -0.000165963    -0.121432 
         100         1.08  0.000877577 -0.000207345    -0.121435 
         100      1.33333  0.000659832  -0.00023882    -0.121443 
         100      1.61333   0.00046212 -0.000258739    -0.121457 
         100         1.92  0.000221953 -0.000269053    -0.121478 
         100      2.25333  4.78715e-06 -0.000268144    -0.121506 
         100      2.61333 -0.000146554 -0.000255226    -0.121538 
         100            3 -0.000222631  -0.00023442    -0.121572 
         150            0            0            0    -0.122084 
         150     0.013333  2.88061e-05 -2.60628e-07    -0.122084 
         150     0.053333 -0.000170866 -4.11959e-06    -0.122084 
         150         0.12 -0.000217806 -1.96089e-05    -0.122085 
         150     0.213332 -3.19361e-05 -5.42683e-05    -0.122085 
         150     0.333332   0.00023302 -0.000108509    -0.122085 
         150         0.48  0.000384105 -0.000176686    -0.122085 
         150     0.653331  0.000356698 -0.000253084    -0.122085 
         150     0.853332  0.000227599 -0.000331344    -0.122086 
         150         1.08  0.000151178 -0.000401691    -0.122086 
         150      1.33333  0.000154732 -0.000457575    -0.122086 
         150      1.61333  0.000153441 -0.000498284    -0.122086 
         150         1.92  0.000145817  -0.00052084    -0.122086 
         150      2.25333  0.000139004 -0.000521866    -0.122086 
         150      2.61333  0.000130963 -0.000502419    -0.122085 
         150            3  0.000118533 -0.000466756    -0.122086 
         200            0           -0           -0    -0.122018 
         200     0.013333  0.000263364  2.17952e-08    -0.122018 
         200     0.053333   0.00057853   5.7865e-07    -0.122018 
         200         0.12  0.000912709  4.13791e-06    -0.122018 
         200     0.213332   0.00109629  1.53111e-05    -0.122018 
         200     0.333332    0.0011005  3.78884e-05    -0.122018 
         200         0.48   0.00102203  7.24083e-05    -0.122017 
         200     0.653331  0.000964994   0.00011689    -0.122017 
         200     0.853332   0.00094738  0.000166996    -0.122017 
         200         1.08  0.000883783  0.000215306    -0.122017 
         200      1.33333  0.000724087  0.000255005     -0.12202 
         200      1.61333  0.000538997  0.000285392    -0.122025 
         200         1.92   0.00035796  0.000305942    -0.122034 
         200      2.25333  0.000184871  0.000313973    -0.122047 
         200      2.61333  3.64996e-05  0.000309568    -0.122063 
         200            3 -6.72011e-05  0.000294047    -0.122082 
         250            0           -0           -0    -0.121662 
         250     0.013333  0.000164538 -3.88635e-07    -0.121662 
         250     0.053333  0.000346144  -5.6939e-06    -0.121663 
         250         0.12  0.000811182 -2.46991e-05    -0.121663 
         250     0.213332   0.00147048 -6.25489e-05    -0.121663 
         250     0.333332   0.00206382 -0.000115784    -0.121662 
         250         0.48   0.00241029 -0.000176513    -0.121662 
         250     0.653331   0.00249938 -0.000240147    -0.121661 
         250     0.853332   0.00236997 -0.000307403    -0.121661 
         250         1.08   0.00206721 -0.000378144    -0.121662 
         250      1.33333   0.00169407 -0.000446772    -0.121666 
         250      1.61333   0.00131672 -0.000505476    -0.121675 
         250         1.92  0.000915776 -0.000549236    -0.121689 
         250      2.25333  0.000505489 -0.000574189    -0.121711 
         250      2.61333  0.000130885 -0.000577611     -0.12174 
         250            3 -0.000158982 -0.000560555    -0.121774 
         300            0           -0           -0    -0.122322 
         300     0.013333  1.87941e-05  8.02839e-08    -0.122322 
         300     0.053333 -0.000303692  1.06272e-06    -0.122322 
         300         0.12 -0.000736193  3.86435e-06    -0.122322 
         300     0.213332  -0.00114198  7.37028e-06    -0.122322 
         300     0.333332  -0.00140811  8.27952e-06    -0.122322 
         300         0.48  -0.00151953   3.3325e-06    -0.122323 
         300     0.653331  -0.00153547 -8.59745e-06    -0.122323 
         300     0.853332  -0.00150337 -2.60106e-05    -0.122323 
         300         1.08  -0.00140756 -4.54395e-05    -0.122322 
         300      1.33333  -0.00121247 -6.28305e-05     -0.12232 
         300      1.61333 -0.000940755 -7.65286e-05    -0.122316 
         300         1.92 -0.000637824 -8.68777e-05    -0.122307 
         300      2.25333   -0.0003191 -9.32291e-05    -0.122295 
         300      2.61333 -1.21607e-05 -9.53812e-05    -0.122278 
         300            3   0.00024387 -9.33622e-05    -0.122257 
         350            0            0            0    -0.120897 
         350     0.013333  0.000142084  4.93169e-08    -0.120897 
         350     0.053333  0.000152744  7.15199e-07    -0.120897 
         350         0.12  0.000158851   3.0121e-06    -0.120897 
         350     0.213332  0.000165862  7.20711e-06    -0.120897 
         350     0.333332  0.000197134  1.23339e-05    -0.120897 
         350         0.48  0.000256425  1.74527e-05    -0.120897 
         350     0.653331  0.000329586  2.29612e-05    -0.120897 
         350     0.853332  0.000406957  2.98707e-05    -0.120897 
         350         1.08  0.000466455  3.75149e-05    -0.120897 
         350      1.33333  0.000468562  4.32339e-05    -0.120897 
         350      1.61333  0.000420606  4.56872e-05    -0.120897 
         350         1.92  0.000362456  4.56639e-05    -0.120896 
         350      2.25333  0.000299076  4.36333e-05    -0.120896 
         350      2.61333  0.000232382  3.96551e-05    -0.120895 
         350            3  0.000169645  3.39652e-05    -0.120894 
         400            0            0            0    -0.119595 
         400     0.013333  8.05324e-05  2.77099e-07    -0.119595 
         400     0.053333 -0.000131124  4.01541e-06    -0.119595 
         400         0.12 -0.000538389   1.7095e-05    -0.119595 
         400     0.213332  -0.00103716  4.21185e-05    -0.119595 
         400     0.333332  -0.00141818  7.51854e-05    -0.119595 
         400         0.48  -0.00156794  0.000109921    -0.119596 
         400     0.653331  -0.00152252  0.000143684    -0.119597 
         400     0.853332  -0.00134885  0.000178373    -0.119597 
         400         1.08  -0.00109187  0.000215513    -0.119597 
         400      1.33333 -0.000824501  0.000252144    -0.119595 
         400      1.61333 -0.000597677  0.000283401    -0.119589 
         400         1.92  -0.00037652  0.000306999     -0.11958 
         400      2.25333 -0.000145908  0.000321758    -0.119565 
         400      2.61333  7.94402e-05  0.000326194    -0.119545 
         400            3  0.000273188  0.000319737    -0.119521 
         450            0            0            0    -0.116046 
         450     0.013333  0.000472732  2.50636e-07    -0.116046 
         450     0.053333    0.0012558   4.2954e-06    -0.116046 
         450         0.12   0.00194634  2.28223e-05    -0.116046 
         450     0.213332   0.00209078  7.12403e-05    -0.116045 
         450     0.333332   0.00169963  0.000159845    -0.116044 
         450         0.48   0.00115473  0.000286558    -0.116043 
         450     0.653331   0.00080494    0.0004409    -0.116042 
         450     0.853332  0.000731769  0.000611154    -0.116042 
         450         1.08  0.000778511  0.000784833    -0.116042 
         450      1.33333  0.000734739  0.000948478    -0.116044 
         450      1.61333  0.000575559   0.00109314    -0.116049 
         450         1.92  0.000407582   0.00121422    -0.116058 
         450      2.25333  0.000249096    0.0013037    -0.116071 
         450      2.61333   9.9804e-05   0.00135378    -0.116089 
         450            3  -3.0101e-05   0.00135983    -0.116111 
         500            0           -0           -0     -0.11129 
         500     0.013333  0.000225592 -7.56747e-07     -0.11129 
         500     0.053333  0.000671549 -1.10737e-05    -0.111291 
         500         0.12   0.00170053 -4.79563e-05    -0.111291 
         500     0.213332   0.00310228 -0.000121072    -0.111291 
         500     0.333332   0.00430445 -0.000222689     -0.11129 
         500         0.48   0.00490875  -0.00033589    -0.111289 
         500     0.653331   0.00493535 -0.000451048    -0.111287 
         500     0.853332   0.00455535 -0.000570865    -0.111285 
         500         1.08   0.00388725 -0.000700186    -0.111286 
         500      1.33333   0.00311947 -0.000832714     -0.11129 
         500      1.61333   0.00245394 -0.000953414    -0.111302 
         500         1.92   0.00184626  -0.00105237    -0.111324 
         500      2.25333    0.0012115  -0.00112438    -0.111358 
         500      2.61333  0.000561914  -0.00116394    -0.111407 
         500            3 -3.22573e-05  -0.00116693     -0.11147 
         550            0            0            0    -0.109438 
         550     0.013333 -0.000502317  3.33437e-07    -0.109437 
         550     0.053333  -0.00222283  3.98932e-06    -0.109437 
         550         0.12  -0.00439863   1.1317e-05    -0.109438 
         550     0.213332  -0.00614931  9.36636e-06    -0.109438 
         550     0.333332  -0.00691573 -2.35383e-05     -0.10944 
         550         0.48  -0.00684925 -0.000100572    -0.109443 
         550     0.653331  -0.00648533 -0.000217199    -0.109446 
         550     0.853332  -0.00614442 -0.000355731    -0.109449 
         550         1.08  -0.00570039 -0.000492469     -0.10945 
         550      1.33333  -0.00491869 -0.000609064    -0.109444 
         550      1.61333  -0.00391381 -0.000704123    -0.109429 
         550         1.92  -0.00291981  -0.00078478    -0.109399 
         550      2.25333  -0.00190773 -0.000848439     -0.10935 
         550      2.61333 -0.000873436 -0.000889346     -0.10928 
         550            3  0.000103237 -0.000903288     -0.10919 
         600            0            0            0   -0.0999905 
         600     0.013333  0.000509398  4.20401e-08   -0.0999905 
         600     0.053333   0.00146735  1.08771e-06   -0.0999905 
         600         0.12   0.00257927  7.85203e-06   -0.0999903 
         600     0.213332   0.00337342  2.99262e-05   -0.0999899 
         600     0.333332   0.00366231  7.67175e-05   -0.0999891 
         600         0.48   0.00360476  0.000151312    -0.099988 
         600     0.653331   0.00347895  0.000250557   -0.0999868 
         600     0.853332   0.00345038  0.000368448   -0.0999858 
         600         1.08    0.0034694  0.000495375   -0.0999857 
         600      1.33333   0.00331051  0.000616617   -0.0999877 
         600      1.61333   0.00286034  0.000719807   -0.0999934 
         600         1.92   0.00229621  0.000803775    -0.100005 
         600      2.25333   0.00170389  0.000868118    -0.100024 
         600      2.61333   0.00109584  0.000908883    -0.100052 
         600            3  0.000494433  0.000921899     -0.10009 
         650            0            0            0    -0.093396 
         650     0.013333  0.000190184  2.76253e-08    -0.093396 
         650     0.053333  0.000322549  5.12552e-07    -0.093396 
         650         0.12  0.000448043  3.00402e-06    -0.093396 
         650     0.213332  0.000467595  1.03324e-05   -0.0933959 
         650     0.333332    0.0003578  2.52275e-05   -0.0933957 
         650         0.48  0.000187059  4.82506e-05   -0.0933956 
         650     0.653331  4.48515e-05  7.73851e-05   -0.0933954 
         650     0.853332 -3.40949e-05  0.000109476   -0.0933953 
         650         1.08 -7.51132e-05  0.000141603   -0.0933953 
         650      1.33333 -0.000104315  0.000172474   -0.0933957 
         650      1.61333 -0.000107131  0.000202776   -0.0933965 
         650         1.92 -8.15215e-05  0.000232455   -0.0933979 
         650      2.25333 -4.86012e-05  0.000259335   -0.0933998 
         650      2.61333 -1.48283e-05   0.00028103   -0.0934023 
         650            3  2.22718e-05  0.000295777   -0.0934052 
         700            0            0            0   -0.0850393 
         700     0.013333 -8.49035e-06 -9.25495e-08   -0.0850393 
         700     0.053333 -0.000345887 -1.58474e-06   -0.0850394 
         700         0.12  -0.00065279 -8.43395e-06   -0.0850395 
         700     0.213332 -0.000746527 -2.64484e-05   -0.0850397 
         700     0.333332  -0.00061841 -5.96915e-05     -0.08504 
         700         0.48  -0.00041668 -0.000107541   -0.0850404 
         700     0.653331 -0.000292557 -0.000165986   -0.0850409 
         700     0.853332 -0.000293596 -0.000230607   -0.0850414 
         700         1.08 -0.000358472 -0.000296777   -0.0850416 
         700      1.33333 -0.000373943 -0.000358959   -0.0850415 
         700      1.61333 -0.000296758 -0.000413303   -0.0850406 
         700         1.92 -0.000196001 -0.000459583   -0.0850385 
         700      2.25333 -0.000101669 -0.000497131   -0.0850349 
         700      2.61333 -1.12853e-05 -0.000523403   -0.0850294 
         700            3  7.85582e-05 -0.000535747   -0.0850221 
         750            0  3.78229e-19  1.14849e-26   -0.0755026 
         750     0.013333  0.000236848  2.65082e-07   -0.0755026 
         750     0.053333  0.000416267   4.1273e-06   -0.0755025 
         750         0.12  0.000415414  1.95785e-05   -0.0755023 
         750     0.213332  9.21469e-05  5.50226e-05   -0.0755021 
         750     0.333332 -0.000415515  0.000113032   -0.0755019 
         750         0.48 -0.000834014  0.000188692   -0.0755019 
         750     0.653331 -0.000997224  0.000274815   -0.0755019 
         750     0.853332 -0.000906825  0.000367049    -0.075502 
         750         1.08  -0.00066302  0.000462552    -0.075502 
         750      1.33333 -0.000424972  0.000555464   -0.0755018 
         750      1.61333 -0.000305557  0.000638606    -0.075501 
         750         1.92 -0.000245873  0.000709399   -0.0754995 
         750      2.25333 -0.000173145  0.000766553   -0.0754968 
         750      2.61333 -7.83579e-05   0.00080716   -0.0754929 
         750            3  1.87074e-05  0.000827494   -0.0754876 
         800            0            0            0   -0.0641567 
         800     0.013333 -7.59135e-05 -4.75649e-07   -0.0641568 
         800     0.053333 -0.000463721 -7.40763e-06    -0.064157 
         800         0.12 -0.000512911 -3.52137e-05   -0.0641573 
         800     0.213332  5.88068e-05  -9.9472e-05   -0.0641577 
         800     0.333332   0.00102792  -0.00020599    -0.064158 
         800         0.48   0.00189543 -0.000347156   -0.0641583 
         800     0.653331   0.00232583 -0.000510168   -0.0641583 
         800     0.853332   0.00228621 -0.000686456   -0.0641582 
         800         1.08   0.00192599 -0.000871028   -0.0641583 
         800      1.33333   0.00149925  -0.00105498   -0.0641589 
         800      1.61333   0.00122449   -0.0012256   -0.0641605 
         800         1.92   0.00106547  -0.00137559   -0.0641638 
         800      2.25333  0.000894371  -0.00150134   -0.0641692 
         800      2.61333  0.000680407  -0.00159651   -0.0641774 
         800            3  0.000455104  -0.00165332   -0.0641886 
         850            0           -0           -0   -0.0517608 
         850     0.013333  0.000705399  3.12143e-07   -0.0517608 
         850     0.053333   0.00208435  5.34256e-06   -0.0517606 
         850         0.12   0.00345966  2.85727e-05   -0.0517603 
         850     0.213332   0.00405288  9.06967e-05   -0.0517596 
         850     0.333332   0.00369421  0.000208457   -0.0517586 
         850         0.48   0.00285566   0.00038358   -0.0517572 
         850     0.653331   0.00214676  0.000604454   -0.0517558 
         850     0.853332   0.00187233  0.000856181   -0.0517545 
         850         1.08   0.00195549   0.00112437   -0.0517539 
         850      1.33333   0.00205744   0.00139149   -0.0517548 
         850      1.61333   0.00189141   0.00163977   -0.0517583 
         850         1.92   0.00153523    0.0018612   -0.0517659 
         850      2.25333   0.00116394   0.00205237    -0.051779 
         850      2.61333  0.000812736   0.00220432   -0.0517988 
         850            3  0.000454635   0.00230535   -0.0518263 
         900            0            0            0   -0.0415443 
         900     0.013333 -0.000386968   3.7275e-07   -0.0415443 
         900     0.053333  -0.00186162  5.00453e-06   -0.0415442 
         900         0.12  -0.00391529  1.86224e-05   -0.0415442 
         900     0.213332  -0.00587939  3.68686e-05   -0.0415446 
         900     0.333332  -0.00712869  4.50024e-05   -0.0415457 
         900         0.48  -0.00751835  2.84989e-05   -0.0415477 
         900     0.653331  -0.00737232 -1.63746e-05   -0.0415504 
         900     0.853332  -0.00706992 -8.17398e-05   -0.0415533 
         900         1.08  -0.00670605 -0.000152795   -0.0415552 
         900      1.33333  -0.00612047 -0.000214249   -0.0415542 
         900      1.61333  -0.00524216 -0.000258642   -0.0415476 
         900         1.92  -0.00427705 -0.000292298   -0.0415319 
         900      2.25333  -0.00331474 -0.000320312   -0.0415036 
         900      2.61333  -0.00232677 -0.000343116   -0.0414596 
         900            3  -0.00129267 -0.000358518   -0.0413974 
         950            0            0            0   -0.0247716 
         950     0.013333 -0.000115577  -4.6127e-07   -0.0247717 
         950     0.053333 -0.000617939  -7.1191e-06   -0.0247719 
         950         0.12 -0.000838459 -3.35924e-05   -0.0247722 
         950     0.213332  -0.00044208 -9.47579e-05   -0.0247725 
         950     0.333332  0.000435566 -0.000197549   -0.0247727 
         950         0.48   0.00135818 -0.000337497   -0.0247728 
         950     0.653331   0.00197478 -0.000504524   -0.0247726 
         950     0.853332   0.00218223 -0.000691096   -0.0247721 
         950         1.08   0.00202939 -0.000894032   -0.0247716 
         950      1.33333   0.00164781  -0.00110906   -0.0247715 
         950      1.61333   0.00125144  -0.00132555   -0.0247723 
         950         1.92   0.00100577  -0.00152888   -0.0247749 
         950      2.25333  0.000828031  -0.00171067   -0.0247798 
         950      2.61333  0.000643472  -0.00186193   -0.0247878 
         950            3  0.000443295  -0.00197345   -0.0247994 
        1000            0  2.26226e-19  2.82712e-25  -0.00814553 
        1000     0.013333  0.000360168 -3.07137e-07  -0.00814558 
        1000     0.053333   0.00106395 -4.41824e-06  -0.00814568 
        1000         0.12   0.00221746 -1.86465e-05  -0.00814576 
        1000     0.213332   0.00356035 -4.56611e-05  -0.00814567 
        1000     0.333332   0.00469621 -8.08747e-05  -0.00814525 
        1000         0.48   0.00536666 -0.000115731   -0.0081444 
        1000     0.653331   0.00559604 -0.000144118  -0.00814314 
        1000     0.853332    0.0055604 -0.000165678  -0.00814172 
        1000         1.08   0.00537226 -0.000185112  -0.00814073 
        1000      1.33333   0.00501494 -0.000208829  -0.00814119 
        1000      1.61333   0.00447031 -0.000240112  -0.00814456 
        1000         1.92   0.00383241 -0.000275746  -0.00815272 
        1000      2.25333   0.00316794 -0.000310267  -0.00816777 
        1000      2.61333   0.00247016   -0.0003408  -0.00819175 
        1000            3   0.00172145 -0.000365785  -0.00822623 
