Variables = x, y, u, v, p

Zone, I=400, F=POINT
         500            0  5.15391e-15  6.24068e-21    0.0054585 
         500     0.000471  0.000182102  2.29826e-10    0.0054585 
         500     0.001884  0.000728392  1.05144e-09    0.0054585 
         500     0.004239   0.00163882  2.99114e-09    0.0054585 
         500     0.007537   0.00291369   7.2442e-09   0.00545851 
         500     0.011776   0.00455212  1.58359e-08   0.00545851 
         500     0.016958   0.00655473  3.15325e-08   0.00545851 
         500     0.023081   0.00892057  5.75541e-08   0.00545851 
         500      0.03015    0.0116514  9.74769e-08   0.00545851 
         500     0.038157    0.0147438  1.55308e-07   0.00545851 
         500     0.047107    0.0181994   2.3593e-07   0.00545851 
         500     0.056999    0.0220176  3.44907e-07   0.00545852 
         500     0.067837    0.0261996  4.88091e-07   0.00545852 
         500     0.079614    0.0307422  6.71632e-07   0.00545852 
         500     0.092332    0.0356459  9.02904e-07   0.00545852 
         500     0.105992    0.0409104   1.1893e-06   0.00545853 
         500       0.1206    0.0465377  1.53917e-06   0.00545853 
         500     0.136145    0.0525229  1.96092e-06   0.00545853 
         500     0.152631     0.058867   2.4639e-06   0.00545854 
         500     0.170067    0.0655727   3.0582e-06   0.00545854 
         500     0.188438    0.0726336  3.75365e-06   0.00545854 
         500     0.207751    0.0800516  4.56136e-06   0.00545855 
         500     0.228006    0.0878257  5.49274e-06   0.00545855 
         500     0.249212    0.0959586  6.56022e-06   0.00545856 
         500     0.271351     0.104442  7.77534e-06   0.00545856 
         500     0.294433     0.113279  9.15166e-06   0.00545857 
         500     0.318456     0.122467  1.07025e-05   0.00545857 
         500     0.343432      0.13201  1.24426e-05   0.00545858 
         500     0.369339     0.141897  1.43851e-05   0.00545858 
         500     0.396189     0.152131  1.65457e-05   0.00545859 
         500     0.423981      0.16271  1.89396e-05   0.00545859 
         500     0.452726     0.173636  2.15837e-05    0.0054586 
         500     0.482403     0.184899  2.44922e-05   0.00545861 
         500     0.513021     0.196498  2.76826e-05   0.00545861 
         500     0.544594     0.208437  3.11733e-05   0.00545862 
         500     0.577096     0.220702  3.49784e-05   0.00545863 
         500     0.610541     0.233295  3.91168e-05   0.00545863 
         500     0.644927      0.24621  4.36063e-05   0.00545864 
         500      0.68027     0.259448  4.84659e-05   0.00545865 
         500     0.716541     0.272995  5.37103e-05   0.00545866 
         500     0.753754     0.286848  5.93589e-05   0.00545866 
         500     0.791909     0.301002  6.54289e-05   0.00545867 
         500     0.831022     0.315455  7.19403e-05   0.00545868 
         500     0.871061     0.330188  7.89046e-05   0.00545869 
         500     0.912043     0.345198  8.63414e-05    0.0054587 
         500     0.953966     0.360476  9.42667e-05   0.00545871 
         500     0.996849     0.376016  0.000102699   0.00545872 
         500      1.04066     0.391795  0.000111647   0.00545873 
         500      1.08541     0.407808  0.000121125   0.00545874 
         500      1.13112     0.424046   0.00013115   0.00545875 
         500      1.17775     0.440482  0.000141725   0.00545876 
         500      1.22533     0.457107  0.000152862   0.00545877 
         500      1.27384     0.473902  0.000164571   0.00545878 
         500      1.32333     0.490857   0.00017686    0.0054588 
         500      1.37373     0.507938  0.000189716   0.00545881 
         500      1.42507      0.52513  0.000203148   0.00545882 
         500      1.47736      0.54241  0.000217157   0.00545884 
         500      1.53061     0.559762  0.000231742   0.00545885 
         500      1.58478     0.577145  0.000246881   0.00545887 
         500      1.63989     0.594539  0.000262565   0.00545888 
         500      1.69595     0.611917  0.000278776    0.0054589 
         500      1.75297     0.629256    0.0002955   0.00545892 
         500      1.81091     0.646511    0.0003127   0.00545893 
         500      1.86979     0.663658  0.000330353   0.00545895 
         500      1.92964      0.68067  0.000348434   0.00545897 
         500       1.9904       0.6975  0.000366892   0.00545899 
         500      2.05211     0.714122  0.000385691   0.00545901 
         500      2.11476       0.7305  0.000404784   0.00545904 
         500      2.17838     0.746608  0.000424125   0.00545906 
         500      2.24291     0.762396  0.000443644   0.00545908 
         500      2.30839     0.777839  0.000463287   0.00545911 
         500       2.3748     0.792903   0.00048299   0.00545913 
         500      2.44219     0.807561  0.000502699   0.00545916 
         500      2.51049     0.821772  0.000522332   0.00545918 
         500      2.57974     0.835512  0.000541833   0.00545921 
         500      2.64993     0.848754  0.000561135   0.00545924 
         500      2.72108     0.861479   0.00058017   0.00545926 
         500      2.79315     0.873655  0.000598847   0.00545929 
         500      2.86617     0.885268  0.000617033   0.00545931 
         500      2.94012     0.896302  0.000634748   0.00545935 
         500      3.01505     0.906752  0.000652036   0.00545942 
         500      3.09089     0.916597  0.000668601   0.00545948 
         500      3.16767      0.92584  0.000684517   0.00545952 
         500      3.24542     0.934483  0.000699723   0.00545956 
         500      3.32409     0.942521  0.000714143    0.0054596 
         500       3.4037     0.949967  0.000727753   0.00545964 
         500      3.48425     0.956829  0.000740533   0.00545968 
         500      3.56577     0.963126  0.000752476   0.00545972 
         500       3.6482     0.968869  0.000763558   0.00545976 
         500      3.73158     0.974083  0.000773772   0.00545981 
         500       3.8159     0.978789  0.000783113   0.00545986 
         500      3.90119     0.983016  0.000791592    0.0054599 
         500       3.9874     0.986786  0.000799229   0.00545995 
         500      4.07454     0.990132  0.000806056   0.00545998 
         500      4.16263     0.993083  0.000812075   0.00546002 
         500      4.25169     0.995669  0.000817366   0.00546007 
         500      4.34166      0.99792  0.000821937   0.00546012 
         500      4.43258     0.999867  0.000825825   0.00546017 
         500      4.52447      1.00154  0.000829107   0.00546022 
         500      4.61726      1.00297  0.000831815   0.00546027 
         500        4.711      1.00417  0.000833983   0.00546032 
         500      4.80569      1.00519  0.000835657   0.00546037 
         500      4.90135      1.00603  0.000836894   0.00546042 
         500      4.99791      1.00673  0.000837757   0.00546048 
         500      5.09542      1.00731  0.000838295   0.00546054 
         500      5.19387      1.00777  0.000838528    0.0054606 
         500       5.2933      1.00815   0.00083853   0.00546068 
         500      5.39364      1.00845  0.000838293   0.00546075 
         500      5.49491      1.00869  0.000837814   0.00546081 
         500      5.59713      1.00887  0.000837163   0.00546086 
         500      5.70033      1.00901  0.000836406   0.00546092 
         500      5.80443      1.00912  0.000835572   0.00546098 
         500      5.90948       1.0092  0.000834557   0.00546106 
         500      6.01551      1.00926  0.000833549   0.00546108 
         500      6.12244       1.0093  0.000832382   0.00546113 
         500      6.23031      1.00933  0.000831186   0.00546119 
         500      6.33912      1.00934  0.000829982   0.00546125 
         500      6.44892      1.00935  0.000828749   0.00546132 
         500      6.55962      1.00936  0.000827467   0.00546138 
         500      6.67126      1.00936  0.000826129   0.00546145 
         500      6.78384      1.00935  0.000824747   0.00546151 
         500      6.89741      1.00935  0.000823344   0.00546157 
         500      7.01187      1.00934  0.000821942   0.00546164 
         500      7.12728      1.00933  0.000820549    0.0054617 
         500      7.24363      1.00932  0.000819161   0.00546176 
         500      7.36097      1.00931  0.000817759   0.00546182 
         500       7.4792       1.0093  0.000816327   0.00546186 
         500      7.59838      1.00929  0.000814839    0.0054619 
         500      7.71854      1.00928  0.000813324   0.00546195 
         500       7.8396      1.00927  0.000811919   0.00546198 
         500      7.96161      1.00926  0.000810488   0.00546204 
         500      8.08455      1.00925  0.000808705   0.00546217 
         500      8.20849      1.00924  0.000807463   0.00546219 
         500      8.33332      1.00923  0.000805913   0.00546227 
         500      8.45909      1.00922  0.000804321   0.00546236 
         500       8.5858      1.00921  0.000802737   0.00546244 
         500      8.71351       1.0092  0.000801145    0.0054625 
         500       8.8421      1.00919  0.000799549   0.00546256 
         500      8.97164      1.00918  0.000797954   0.00546262 
         500      9.10212      1.00917  0.000796359   0.00546267 
         500       9.2336      1.00916  0.000794757   0.00546274 
         500      9.36596      1.00915  0.000793142   0.00546281 
         500      9.49927      1.00914  0.000791506   0.00546289 
         500      9.63352      1.00913  0.000789847   0.00546298 
         500      9.76877      1.00912  0.000788168   0.00546306 
         500       9.9049      1.00911  0.000786478   0.00546313 
         500       10.042       1.0091   0.00078478   0.00546319 
         500      10.1801      1.00909  0.000783068   0.00546325 
         500       10.319      1.00908  0.000781335    0.0054633 
         500      10.4589      1.00907   0.00077957   0.00546334 
         500      10.5998      1.00906  0.000777802   0.00546341 
         500      10.7416      1.00905   0.00077614   0.00546349 
         500      10.8843      1.00904   0.00077453   0.00546352 
         500       11.028      1.00903  0.000772899   0.00546357 
         500      11.1726      1.00902  0.000771176   0.00546363 
         500      11.3182      1.00901  0.000769353   0.00546369 
         500      11.4647        1.009  0.000767454   0.00546375 
         500      11.6122      1.00899  0.000765516   0.00546382 
         500      11.7605      1.00898  0.000763578   0.00546388 
         500      11.9099      1.00897  0.000761674   0.00546393 
         500      12.0602      1.00897  0.000759826   0.00546397 
         500      12.2114      1.00896  0.000758036     0.005464 
         500      12.3636      1.00895   0.00075628   0.00546403 
         500      12.5167      1.00894  0.000754511   0.00546406 
         500      12.6707      1.00893  0.000752658   0.00546412 
         500      12.8257      1.00892  0.000750663   0.00546423 
         500      12.9817      1.00891  0.000748537   0.00546436 
         500      13.1386       1.0089  0.000746482    0.0054645 
         500      13.2964      1.00889  0.000745073    0.0054645 
         500      13.4551      1.00888  0.000742871   0.00546477 
         500      13.6149      1.00887  0.000740773   0.00546501 
         500      13.7755      1.00886  0.000738753   0.00546522 
         500      13.9371      1.00886  0.000736827   0.00546529 
         500      14.0996      1.00885  0.000734857   0.00546533 
         500      14.2631      1.00884  0.000732825   0.00546537 
         500      14.4275      1.00883   0.00073076   0.00546543 
         500      14.5928      1.00882  0.000728696    0.0054655 
         500      14.7592      1.00881  0.000726649   0.00546556 
         500      14.9264       1.0088  0.000724618   0.00546562 
         500      15.0946      1.00879  0.000722585   0.00546566 
         500      15.2637      1.00879  0.000720528    0.0054657 
         500      15.4338      1.00878  0.000718435   0.00546573 
         500      15.6048      1.00877  0.000716305   0.00546578 
         500      15.7767      1.00876  0.000714154   0.00546586 
         500      15.9496      1.00875  0.000712004   0.00546595 
         500      16.1235      1.00875  0.000709874   0.00546604 
         500      16.2982      1.00874  0.000707766   0.00546612 
         500      16.4739      1.00873  0.000705656   0.00546617 
         500      16.6506      1.00872    0.0007035   0.00546617 
         500      16.8282      1.00871  0.000701269   0.00546617 
         500      17.0068       1.0087  0.000699034   0.00546627 
         500      17.1862       1.0087  0.000697036   0.00546624 
         500      17.3667      1.00869  0.000694975   0.00546626 
         500      17.5481      1.00868  0.000692822   0.00546638 
         500      17.7304      1.00867  0.000690237   0.00546636 
         500      17.9136      1.00866  0.000688288   0.00546637 
         500      18.0979      1.00865  0.000686745   0.00546659 
         500       18.283      1.00864  0.000684234    0.0054667 
         500      18.4691      1.00864  0.000681553   0.00546677 
         500      18.6561      1.00863  0.000679008   0.00546685 
         500      18.8441      1.00863  0.000676641   0.00546695 
         500       19.033      1.00862  0.000674391   0.00546707 
         500      19.2228      1.00861  0.000672189    0.0054672 
         500      19.4136       1.0086  0.000670026   0.00546735 
         500      19.6054       1.0086   0.00066742   0.00546731 
         500       19.798      1.00859  0.000664839   0.00546726 
         500      19.9917      1.00858  0.000662513   0.00546728 
         500      20.1862      1.00857  0.000660294   0.00546735 
         500      20.3818      1.00856  0.000658059   0.00546744 
         500      20.5782      1.00855  0.000655742   0.00546754 
         500      20.7756      1.00855  0.000653328   0.00546762 
         500       20.974      1.00854  0.000650849   0.00546768 
         500      21.1732      1.00854  0.000648367   0.00546772 
         500      21.3734      1.00853  0.000645935   0.00546775 
         500      21.5745      1.00852  0.000643577   0.00546777 
         500      21.7767      1.00851  0.000641261   0.00546781 
         500      21.9797       1.0085  0.000638897   0.00546786 
         500      22.1837      1.00849  0.000636368   0.00546793 
         500      22.3886      1.00849  0.000633615     0.005468 
         500      22.5945      1.00849    0.0006308   0.00546804 
         500      22.8013      1.00847  0.000628418   0.00546801 
         500      23.0091      1.00847  0.000625663   0.00546815 
         500      23.2177      1.00846  0.000623196    0.0054682 
         500      23.4274      1.00845  0.000620747   0.00546822 
         500       23.638      1.00844  0.000618229   0.00546824 
         500      23.8495      1.00844  0.000615636   0.00546825 
         500       24.062      1.00843  0.000612987   0.00546826 
         500      24.2754      1.00843   0.00061028    0.0054683 
         500      24.4897      1.00842  0.000607451   0.00546842 
         500       24.705      1.00841  0.000604367   0.00546871 
         500      24.9213      1.00841  0.000601913   0.00546894 
         500      25.1385       1.0084  0.000599368   0.00546904 
         500      25.3566      1.00839  0.000596735   0.00546909 
         500      25.5756      1.00839  0.000594061   0.00546913 
         500      25.7957      1.00838  0.000591381   0.00546919 
         500      26.0166      1.00838  0.000588702   0.00546926 
         500      26.2385      1.00837  0.000586024   0.00546934 
         500      26.4613      1.00836  0.000583384   0.00546943 
         500      26.6851      1.00835  0.000580871   0.00546953 
         500      26.9098      1.00834   0.00057858   0.00546969 
         500      27.1354      1.00834  0.000575609   0.00546983 
         500      27.3621      1.00834  0.000572673   0.00546996 
         500      27.5896      1.00833  0.000570004   0.00547012 
         500      27.8181      1.00832  0.000567219   0.00547029 
         500      28.0475      1.00831   0.00056424   0.00547046 
         500      28.2779       1.0083  0.000561105    0.0054706 
         500      28.5092       1.0083  0.000557939    0.0054707 
         500      28.7414       1.0083  0.000555038   0.00547071 
         500      28.9746      1.00829  0.000553104   0.00547059 
         500      29.2088      1.00829  0.000549645   0.00547029 
         500      29.4439      1.00828  0.000546493    0.0054702 
         500      29.6799      1.00827  0.000544046    0.0054703 
         500      29.9168      1.00827  0.000541672   0.00547049 
         500      30.1548      1.00826  0.000539002   0.00547071 
         500      30.3936      1.00825   0.00053593    0.0054709 
         500      30.6334      1.00825  0.000532559   0.00547105 
         500      30.8742      1.00824  0.000529122   0.00547116 
         500      31.1158      1.00824  0.000525881   0.00547124 
         500      31.3584      1.00823  0.000523005   0.00547132 
         500       31.602      1.00822  0.000520481   0.00547142 
         500      31.8465      1.00821  0.000518072   0.00547155 
         500      32.0919      1.00821  0.000515375   0.00547172 
         500      32.3383      1.00821  0.000512023   0.00547191 
         500      32.5856      1.00821  0.000508101   0.00547211 
         500       32.834      1.00821  0.000504853   0.00547227 
         500      33.0831       1.0082  0.000504372   0.00547238 
         500      33.3333      1.00818  0.000498836   0.00547243 
         500      33.5843      1.00817  0.000496177   0.00547246 
         500      33.8364      1.00817  0.000493869   0.00547247 
         500      34.0894      1.00817  0.000490961   0.00547246 
         500      34.3433      1.00817  0.000487387   0.00547246 
         500      34.5981      1.00816  0.000483479   0.00547249 
         500       34.854      1.00816  0.000479642   0.00547256 
         500      35.1107      1.00815  0.000476178    0.0054727 
         500      35.3684      1.00815  0.000473193   0.00547288 
         500      35.6271      1.00814  0.000470605    0.0054731 
         500      35.8867      1.00813  0.000468202   0.00547333 
         500      36.1472      1.00812  0.000465713   0.00547356 
         500      36.4086      1.00812  0.000462898   0.00547377 
         500      36.6711      1.00811   0.00045962   0.00547394 
         500      36.9344      1.00811  0.000455894   0.00547408 
         500      37.1987      1.00811  0.000451887   0.00547419 
         500      37.4639       1.0081  0.000447883    0.0054743 
         500      37.7301       1.0081    0.0004442   0.00547443 
         500      37.9972       1.0081  0.000441082   0.00547459 
         500      38.2652      1.00809  0.000438545   0.00547476 
         500      38.5342      1.00808  0.000436258    0.0054749 
         500      38.8042      1.00807  0.000433428   0.00547483 
         500      39.0751      1.00807  0.000428712   0.00547483 
         500      39.3469      1.00807  0.000424832   0.00547516 
         500      39.6197      1.00806  0.000421483   0.00547572 
         500      39.8934      1.00807  0.000418602   0.00547642 
         500       40.168      1.00805  0.000415991   0.00547572 
         500      40.4436      1.00804  0.000413289   0.00547485 
         500      40.7202      1.00804  0.000408465   0.00547401 
         500      40.9977      1.00804  0.000404328    0.0054741 
         500      41.2761      1.00804  0.000402952   0.00547463 
         500      41.5554      1.00803   0.00040017   0.00547483 
         500      41.8358      1.00803  0.000396463   0.00547487 
         500       42.117      1.00802  0.000392305   0.00547489 
         500      42.3992      1.00801  0.000388066   0.00547492 
         500      42.6823      1.00801  0.000383985   0.00547499 
         500      42.9664      1.00801  0.000380167   0.00547509 
         500      43.2514      1.00801  0.000376617   0.00547521 
         500      43.5373        1.008  0.000373266   0.00547533 
         500      43.8243        1.008  0.000370021   0.00547543 
         500      44.1121        1.008  0.000366801   0.00547552 
         500      44.4009        1.008  0.000363547   0.00547558 
         500      44.6906      1.00799  0.000360243   0.00547562 
         500      44.9813      1.00798  0.000356898   0.00547565 
         500      45.2729      1.00798  0.000353528   0.00547568 
         500      45.5654      1.00797  0.000350126   0.00547571 
         500      45.8589      1.00797  0.000346638   0.00547574 
         500      46.1534      1.00796  0.000342954   0.00547577 
         500      46.4488      1.00796  0.000338954   0.00547578 
         500      46.7451      1.00796  0.000334586   0.00547579 
         500      47.0423      1.00796  0.000330079   0.00547582 
         500      47.3406      1.00796  0.000326254   0.00547592 
         500      47.6397      1.00796  0.000325049    0.0054762 
         500      47.9398      1.00795  0.000319534    0.0054761 
         500      48.2409      1.00794  0.000315658   0.00547625 
         500      48.5428      1.00794  0.000312638   0.00547654 
         500      48.8457      1.00794  0.000309256    0.0054768 
         500      49.1496      1.00794   0.00030526   0.00547693 
         500      49.4545      1.00793  0.000300895   0.00547693 
         500      49.7602      1.00793  0.000296568   0.00547681 
         500      50.0668      1.00792  0.000292604   0.00547664 
         500      50.3744      1.00792  0.000289134   0.00547648 
         500      50.6831      1.00791  0.000286061   0.00547639 
         500      50.9926      1.00791  0.000283117   0.00547642 
         500       51.303       1.0079  0.000279962   0.00547657 
         500      51.6144       1.0079  0.000276322   0.00547681 
         500      51.9268       1.0079   0.00027211    0.0054771 
         500        52.24       1.0079  0.000267522   0.00547737 
         500      52.5542       1.0079  0.000263002   0.00547757 
         500      52.8694       1.0079  0.000259086   0.00547768 
         500      53.1856       1.0079  0.000256018   0.00547779 
         500      53.5026       1.0079  0.000253083   0.00547816 
         500      53.8205      1.00789  0.000249605   0.00547845 
         500      54.1396      1.00787   0.00024644   0.00547831 
         500      54.4594      1.00786  0.000242743   0.00547812 
         500      54.7802      1.00786  0.000238411    0.0054779 
         500      55.1019      1.00786  0.000233548   0.00547767 
         500      55.4247      1.00786  0.000228425   0.00547751 
         500      55.7483      1.00786  0.000223437   0.00547754 
         500      56.0729      1.00787  0.000218998   0.00547799 
         500      56.3984      1.00787  0.000215413   0.00547913 
         500       56.725      1.00786  0.000210409   0.00547919 
         500      57.0523      1.00786   0.00020579   0.00547863 
         500      57.3807      1.00786  0.000202524   0.00547832 
         500      57.7099      1.00785  0.000199906   0.00547815 
         500      58.0403      1.00785  0.000197278   0.00547807 
         500      58.3714      1.00784  0.000194192   0.00547807 
         500      58.7035      1.00784  0.000190452   0.00547812 
         500      59.0367      1.00784  0.000186098   0.00547824 
         500      59.3707      1.00784  0.000181337    0.0054784 
         500      59.7056      1.00784  0.000176445   0.00547859 
         500      60.0414      1.00784  0.000171681   0.00547877 
         500      60.3784      1.00783  0.000167211   0.00547893 
         500      60.7161      1.00782  0.000163069   0.00547906 
         500      61.0548      1.00781  0.000159147   0.00547915 
         500      61.3944       1.0078  0.000155238   0.00547921 
         500      61.7351       1.0078  0.000151115   0.00547929 
         500      62.0767      1.00781  0.000146646   0.00547941 
         500      62.4191      1.00783   0.00014191   0.00547958 
         500      62.7625      1.00785  0.000137321   0.00547976 
         500       63.107      1.00786  0.000133694   0.00547982 
         500      63.4523      1.00784  0.000131823   0.00547956 
         500      63.7985      1.00786  0.000126783   0.00548018 
         500      64.1458      1.00786  0.000122787   0.00548025 
         500      64.4939      1.00784  0.000118941   0.00547999 
         500       64.843      1.00781  0.000114809   0.00547959 
         500      65.1929      1.00778  0.000110266   0.00547918 
         500       65.544      1.00776  0.000105368   0.00547886 
         500      65.8959      1.00775  0.000100269    0.0054787 
         500      66.2487      1.00774  9.51461e-05   0.00547871 
         500      66.6025      1.00775  9.01599e-05   0.00547891 
         500      66.9573      1.00776  8.54245e-05   0.00547925 
         500       67.313      1.00778  8.10036e-05   0.00547971 
         500      67.6695      1.00781  7.68983e-05   0.00548023 
         500      68.0271      1.00783  7.30619e-05   0.00548076 
         500      68.3857      1.00785  6.94085e-05   0.00548125 
         500      68.7451      1.00787  6.58344e-05   0.00548165 
         500      69.1055      1.00787  6.22243e-05   0.00548195 
         500      69.4669      1.00786  5.84699e-05   0.00548211 
         500      69.8291      1.00783  5.44862e-05   0.00548216 
         500      70.1923       1.0078   5.0211e-05    0.0054821 
         500      70.5564      1.00777  4.56156e-05   0.00548197 
         500      70.9217      1.00774  4.07029e-05    0.0054818 
         500      71.2877      1.00772  3.55158e-05   0.00548161 
         500      71.6546      1.00773  3.01254e-05   0.00548139 
         500      72.0225      1.00775   2.4641e-05   0.00548111 
         500      72.3915      1.00777  1.92152e-05   0.00548065 
         500      72.7613      1.00778  1.40723e-05   0.00547978 
         500       73.132      1.00769  9.53135e-06   0.00547815 
         500      73.5036      1.00742  6.07369e-06   0.00547519 
         500      73.8764       1.0068  3.64391e-06   0.00547222 
         500      74.2499      1.00561   1.4941e-06   0.00547234 
         500      74.6244       1.0035  3.96645e-07   0.00547328 
         500           75            1           -0   0.00547579 
