Variables = x, y, u, v, p

Zone, I=400, F=POINT
         800            0            0            0   0.00203694 
         800     0.000471   0.00015833   1.4575e-10   0.00203694 
         800     0.001884  0.000633305  6.66791e-10   0.00203694 
         800     0.004239   0.00142488  1.89687e-09   0.00203694 
         800     0.007537   0.00253333  4.59396e-09   0.00203694 
         800     0.011776   0.00395788  1.00423e-08   0.00203694 
         800     0.016958   0.00569906   1.9996e-08   0.00203695 
         800     0.023081   0.00775606  3.64965e-08   0.00203695 
         800      0.03015    0.0101304  6.18112e-08   0.00203695 
         800     0.038157    0.0128191  9.84799e-08   0.00203695 
         800     0.047107    0.0158237  1.49598e-07   0.00203695 
         800     0.056999    0.0191435  2.18691e-07   0.00203695 
         800     0.067837    0.0227796  3.09467e-07   0.00203695 
         800     0.079614    0.0267293  4.25823e-07   0.00203695 
         800     0.092332    0.0309929   5.7243e-07   0.00203696 
         800     0.105992    0.0355703   7.5397e-07   0.00203696 
         800       0.1206    0.0404632  9.75734e-07   0.00203696 
         800     0.136145    0.0456674  1.24305e-06   0.00203696 
         800     0.152631    0.0511836  1.56182e-06   0.00203696 
         800     0.170067    0.0570145  1.93844e-06   0.00203697 
         800     0.188438    0.0631543  2.37915e-06   0.00203697 
         800     0.207751    0.0696048  2.89096e-06   0.00203697 
         800     0.228006    0.0763653  3.48112e-06   0.00203697 
         800     0.249212     0.083438  4.15748e-06   0.00203698 
         800     0.271351    0.0908161  4.92738e-06   0.00203698 
         800     0.294433    0.0985021  5.79937e-06   0.00203698 
         800     0.318456     0.106494  6.78193e-06   0.00203699 
         800     0.343432     0.114796  7.88448e-06   0.00203699 
         800     0.369339     0.123398  9.11525e-06   0.00203699 
         800     0.396189     0.132303  1.04843e-05     0.002037 
         800     0.423981      0.14151  1.20013e-05     0.002037 
         800     0.452726     0.151021  1.36771e-05     0.002037 
         800     0.482403     0.160828  1.55208e-05   0.00203701 
         800     0.513021      0.17093  1.75436e-05   0.00203701 
         800     0.544594     0.181332  1.97573e-05   0.00203702 
         800     0.577096     0.192021  2.21712e-05   0.00203702 
         800     0.610541     0.203001  2.47977e-05   0.00203702 
         800     0.644927     0.214268   2.7648e-05   0.00203703 
         800      0.68027     0.225824  3.07353e-05   0.00203703 
         800     0.716541     0.237657  3.40689e-05   0.00203704 
         800     0.753754     0.249766  3.76618e-05   0.00203704 
         800     0.791909     0.262149  4.15261e-05   0.00203705 
         800     0.831022     0.274806  4.56754e-05   0.00203705 
         800     0.871061     0.287722  5.01182e-05   0.00203706 
         800     0.912043     0.300898  5.48684e-05   0.00203706 
         800     0.953966     0.314326  5.99373e-05   0.00203707 
         800     0.996849     0.328006  6.53389e-05   0.00203708 
         800      1.04066     0.341921  7.10799e-05   0.00203708 
         800      1.08541     0.356068  7.71736e-05   0.00203709 
         800      1.13112     0.370444  8.36329e-05   0.00203709 
         800      1.17775     0.385031  9.04628e-05    0.0020371 
         800      1.22533     0.399823  9.76749e-05   0.00203711 
         800      1.27384     0.414809  0.000105278   0.00203711 
         800      1.32333     0.429985  0.000113282   0.00203712 
         800      1.37373     0.445328  0.000121691   0.00203713 
         800      1.42507     0.460828  0.000130509   0.00203714 
         800      1.47736     0.476472  0.000139742   0.00203714 
         800      1.53061     0.492253  0.000149399   0.00203715 
         800      1.58478      0.50814  0.000159473   0.00203716 
         800      1.63989     0.524124  0.000169968   0.00203717 
         800      1.69595     0.540186  0.000180882   0.00203718 
         800      1.75297     0.556313  0.000192214   0.00203719 
         800      1.81091     0.572474  0.000203952    0.0020372 
         800      1.86979     0.588652  0.000216091   0.00203721 
         800      1.92964     0.604832  0.000228626   0.00203722 
         800       1.9904     0.620979  0.000241535   0.00203723 
         800      2.05211     0.637074  0.000254809   0.00203724 
         800      2.11476     0.653094  0.000268428   0.00203725 
         800      2.17838     0.669018  0.000282378   0.00203726 
         800      2.24291     0.684807  0.000296623   0.00203727 
         800      2.30839     0.700443  0.000311143   0.00203729 
         800       2.3748     0.715897  0.000325907    0.0020373 
         800      2.44219     0.731147  0.000340892   0.00203731 
         800      2.51049     0.746155  0.000356051   0.00203733 
         800      2.57974     0.760899  0.000371356   0.00203734 
         800      2.64993     0.775352  0.000386765   0.00203736 
         800      2.72108     0.789493  0.000402236   0.00203737 
         800      2.79315     0.803285   0.00041772   0.00203739 
         800      2.86617     0.816708  0.000433179   0.00203741 
         800      2.94012      0.82974  0.000448555   0.00203742 
         800      3.01505     0.842361  0.000463814   0.00203744 
         800      3.09089     0.854542  0.000478906   0.00203746 
         800      3.16767     0.866268  0.000493778   0.00203748 
         800      3.24542     0.877527  0.000508385    0.0020375 
         800      3.32409     0.888296  0.000522677   0.00203752 
         800       3.4037     0.898567   0.00053661   0.00203755 
         800      3.48425      0.90833  0.000550139   0.00203757 
         800      3.56577     0.917582  0.000563226   0.00203759 
         800       3.6482     0.926311   0.00057582   0.00203761 
         800      3.73158      0.93452  0.000587889   0.00203763 
         800       3.8159     0.942211  0.000599408   0.00203766 
         800      3.90119     0.949391  0.000610363   0.00203768 
         800       3.9874     0.956061  0.000620723   0.00203771 
         800      4.07454     0.962234  0.000630454   0.00203774 
         800      4.16263     0.967923  0.000639562   0.00203777 
         800      4.25169     0.973144  0.000648038   0.00203779 
         800      4.34166     0.977911  0.000655885   0.00203782 
         800      4.43258     0.982243  0.000663083   0.00203786 
         800      4.52447     0.986164  0.000669637   0.00203789 
         800      4.61726     0.989692  0.000675566   0.00203792 
         800        4.711     0.992851    0.0006809   0.00203795 
         800      4.80569     0.995666  0.000685657   0.00203798 
         800      4.90135     0.998161  0.000689857   0.00203801 
         800      4.99791      1.00036  0.000693529   0.00203803 
         800      5.09542      1.00229  0.000696697   0.00203807 
         800      5.19387      1.00396  0.000699366   0.00203811 
         800       5.2933      1.00542   0.00070163   0.00203814 
         800      5.39364      1.00667  0.000703456   0.00203818 
         800      5.49491      1.00774  0.000704901   0.00203821 
         800      5.59713      1.00864   0.00070601   0.00203824 
         800      5.70033      1.00941   0.00070681   0.00203827 
         800      5.80443      1.01005  0.000707324   0.00203831 
         800      5.90948      1.01059  0.000707581   0.00203834 
         800      6.01551      1.01103  0.000707613   0.00203837 
         800      6.12244      1.01139  0.000707451   0.00203841 
         800      6.23031      1.01168  0.000707123   0.00203845 
         800      6.33912      1.01192  0.000706649    0.0020385 
         800      6.44892      1.01211  0.000706041   0.00203853 
         800      6.55962      1.01226   0.00070531   0.00203857 
         800      6.67126      1.01237  0.000704472    0.0020386 
         800      6.78384      1.01246  0.000703559   0.00203867 
         800      6.89741      1.01253  0.000702542    0.0020387 
         800      7.01187      1.01258  0.000701606   0.00203874 
         800      7.12728      1.01261   0.00070059   0.00203875 
         800      7.24363      1.01264   0.00069946   0.00203879 
         800      7.36097      1.01265  0.000698312   0.00203882 
         800       7.4792      1.01266  0.000697126   0.00203885 
         800      7.59838      1.01266  0.000695904   0.00203889 
         800      7.71854      1.01266  0.000694657   0.00203892 
         800       7.8396      1.01266  0.000693395   0.00203896 
         800      7.96161      1.01266  0.000692124     0.002039 
         800      8.08455      1.01265  0.000690845   0.00203905 
         800      8.20849      1.01264  0.000689554    0.0020391 
         800      8.33332      1.01263   0.00068825   0.00203915 
         800      8.45909      1.01262  0.000686932    0.0020392 
         800       8.5858      1.01261  0.000685602   0.00203924 
         800      8.71351       1.0126  0.000684265   0.00203928 
         800       8.8421      1.01259  0.000682924   0.00203931 
         800      8.97164      1.01258  0.000681578   0.00203935 
         800      9.10212      1.01257  0.000680221   0.00203939 
         800       9.2336      1.01256  0.000678835   0.00203943 
         800      9.36596      1.01255  0.000677458   0.00203948 
         800      9.49927      1.01254  0.000676076   0.00203952 
         800      9.63352      1.01253  0.000674644   0.00203957 
         800      9.76877      1.01252  0.000673175   0.00203962 
         800       9.9049      1.01251  0.000671696   0.00203967 
         800       10.042       1.0125   0.00067022   0.00203972 
         800      10.1801      1.01249  0.000668749   0.00203976 
         800       10.319      1.01248  0.000667275   0.00203981 
         800      10.4589      1.01247   0.00066579   0.00203985 
         800      10.5998      1.01246  0.000664291   0.00203988 
         800      10.7416      1.01245  0.000662788   0.00203993 
         800      10.8843      1.01244  0.000661297   0.00203997 
         800       11.028      1.01243  0.000659834   0.00204002 
         800      11.1726      1.01242  0.000658399   0.00204006 
         800      11.3182      1.01241  0.000656966   0.00204011 
         800      11.4647       1.0124  0.000655487   0.00204015 
         800      11.6122      1.01239  0.000653911   0.00204019 
         800      11.7605      1.01238  0.000652258   0.00204024 
         800      11.9099      1.01237  0.000650495   0.00204029 
         800      12.0602      1.01237  0.000648743   0.00204035 
         800      12.2114      1.01236  0.000647409   0.00204039 
         800      12.3636      1.01235  0.000645612   0.00204044 
         800      12.5167      1.01234  0.000644223   0.00204048 
         800      12.6707      1.01233   0.00064278   0.00204052 
         800      12.8257      1.01232  0.000641174   0.00204058 
         800      12.9817      1.01231  0.000639402   0.00204062 
         800      13.1386       1.0123  0.000637569   0.00204065 
         800      13.2964      1.01229  0.000635845   0.00204068 
         800      13.4551      1.01228  0.000634255   0.00204072 
         800      13.6149      1.01227  0.000632721   0.00204078 
         800      13.7755      1.01226   0.00063113   0.00204083 
         800      13.9371      1.01226  0.000629407   0.00204089 
         800      14.0996      1.01225  0.000627559   0.00204095 
         800      14.2631      1.01224  0.000625677   0.00204099 
         800      14.4275      1.01223  0.000623888   0.00204104 
         800      14.5928      1.01222  0.000622268   0.00204108 
         800      14.7592      1.01221  0.000620754   0.00204113 
         800      14.9264       1.0122  0.000619126   0.00204119 
         800      15.0946      1.01219  0.000617143   0.00204127 
         800      15.2637      1.01218  0.000614979   0.00204131 
         800      15.4338      1.01218  0.000614116   0.00204121 
         800      15.6048      1.01217  0.000611447    0.0020413 
         800      15.7767      1.01216  0.000609974   0.00204133 
         800      15.9496      1.01215  0.000608341   0.00204137 
         800      16.1235      1.01214  0.000606369   0.00204145 
         800      16.2982      1.01213  0.000604305   0.00204153 
         800      16.4739      1.01213  0.000602376   0.00204161 
         800      16.6506      1.01212   0.00060068   0.00204166 
         800      16.8282      1.01211  0.000598897   0.00204171 
         800      17.0068       1.0121  0.000597114   0.00204174 
         800      17.1862      1.01209  0.000595289   0.00204179 
         800      17.3667      1.01209  0.000593387   0.00204185 
         800      17.5481      1.01208  0.000591406   0.00204191 
         800      17.7304      1.01207  0.000589377   0.00204197 
         800      17.9136      1.01206  0.000587355   0.00204202 
         800      18.0979      1.01205   0.00058539   0.00204205 
         800       18.283      1.01204    0.0005835   0.00204209 
         800      18.4691      1.01204  0.000581647   0.00204214 
         800      18.6561      1.01203  0.000579747    0.0020422 
         800      18.8441      1.01202  0.000577711   0.00204229 
         800       19.033      1.01201  0.000575573   0.00204238 
         800      19.2228      1.01201  0.000573698   0.00204242 
         800      19.4136        1.012  0.000571797   0.00204242 
         800      19.6054      1.01199   0.00056963   0.00204246 
         800       19.798      1.01198  0.000567681   0.00204252 
         800      19.9917      1.01197  0.000565765   0.00204258 
         800      20.1862      1.01197  0.000563796   0.00204262 
         800      20.3818      1.01196  0.000561577   0.00204264 
         800      20.5782      1.01195  0.000559194   0.00204264 
         800      20.7756      1.01194  0.000557323   0.00204266 
         800       20.974      1.01194  0.000555086   0.00204272 
         800      21.1732      1.01193  0.000553209   0.00204278 
         800      21.3734      1.01192  0.000551214   0.00204284 
         800      21.5745      1.01192  0.000549036   0.00204287 
         800      21.7767      1.01191  0.000546776    0.0020429 
         800      21.9797       1.0119   0.00054456   0.00204292 
         800      22.1837      1.01189  0.000542456   0.00204296 
         800      22.3886      1.01189  0.000540455   0.00204303 
         800      22.5945      1.01188  0.000538488   0.00204313 
         800      22.8013      1.01187  0.000536463   0.00204324 
         800      23.0091      1.01186  0.000534307   0.00204335 
         800      23.2177      1.01186     0.000532   0.00204342 
         800      23.4274      1.01185  0.000529604    0.0020434 
         800       23.638      1.01184   0.00052711   0.00204349 
         800      23.8495      1.01184  0.000524608   0.00204369 
         800       24.062      1.01183  0.000522327   0.00204377 
         800      24.2754      1.01182    0.0005203   0.00204377 
         800      24.4897      1.01182  0.000518464   0.00204373 
         800       24.705      1.01181  0.000516631   0.00204368 
         800      24.9213       1.0118  0.000514518   0.00204366 
         800      25.1385       1.0118    0.0005119   0.00204368 
         800      25.3566      1.01179  0.000508912   0.00204376 
         800      25.5756      1.01178  0.000506607   0.00204386 
         800      25.7957      1.01178  0.000505798    0.0020439 
         800      26.0166      1.01177  0.000501837   0.00204388 
         800      26.2385      1.01176  0.000499435   0.00204399 
         800      26.4613      1.01176  0.000497583   0.00204413 
         800      26.6851      1.01175  0.000495728   0.00204427 
         800      26.9098      1.01174   0.00049363   0.00204437 
         800      27.1354      1.01174  0.000491247   0.00204443 
         800      27.3621      1.01173  0.000488643   0.00204447 
         800      27.5896      1.01172   0.00048593    0.0020445 
         800      27.8181      1.01172  0.000483215   0.00204454 
         800      28.0475      1.01171  0.000480582   0.00204459 
         800      28.2779      1.01171  0.000478075   0.00204465 
         800      28.5092       1.0117  0.000475698   0.00204474 
         800      28.7414      1.01169  0.000473422   0.00204483 
         800      28.9746      1.01169  0.000471194   0.00204492 
         800      29.2088      1.01168  0.000468955   0.00204499 
         800      29.4439      1.01167  0.000466657   0.00204503 
         800      29.6799      1.01167  0.000464269   0.00204504 
         800      29.9168      1.01166  0.000461788     0.002045 
         800      30.1548      1.01166  0.000459248   0.00204494 
         800      30.3936      1.01165  0.000456604    0.0020449 
         800      30.6334      1.01165   0.00045331   0.00204501 
         800      30.8742      1.01164   0.00045047    0.0020451 
         800      31.1158      1.01163  0.000448185   0.00204516 
         800      31.3584      1.01163  0.000446381   0.00204521 
         800       31.602      1.01162  0.000444564   0.00204529 
         800      31.8465      1.01161  0.000441455   0.00204551 
         800      32.0919      1.01161  0.000435403    0.0020459 
         800      32.3383      1.01161  0.000436197   0.00204502 
         800      32.5856       1.0116  0.000433672   0.00204507 
         800       32.834      1.01159  0.000430849    0.0020455 
         800      33.0831      1.01159  0.000428475   0.00204557 
         800      33.3333      1.01158  0.000426072   0.00204546 
         800      33.5843      1.01158  0.000423063   0.00204537 
         800      33.8364      1.01157  0.000419557   0.00204549 
         800      34.0894      1.01157  0.000416632   0.00204567 
         800      34.3433      1.01156  0.000414094   0.00204587 
         800      34.5981      1.01156  0.000411759   0.00204605 
         800       34.854      1.01155  0.000409466   0.00204617 
         800      35.1107      1.01155  0.000407096   0.00204622 
         800      35.3684      1.01154  0.000404577   0.00204621 
         800      35.6271      1.01154  0.000401879   0.00204616 
         800      35.8867      1.01153   0.00039902    0.0020461 
         800      36.1472      1.01153   0.00039605   0.00204605 
         800      36.4086      1.01152  0.000393037   0.00204605 
         800      36.6711      1.01151   0.00039005    0.0020461 
         800      36.9344      1.01151  0.000387148   0.00204622 
         800      37.1987       1.0115   0.00038436   0.00204639 
         800      37.4639       1.0115  0.000381675   0.00204658 
         800      37.7301      1.01149  0.000379038   0.00204674 
         800      37.9972      1.01149  0.000376368   0.00204682 
         800      38.2652      1.01148  0.000373576    0.0020468 
         800      38.5342      1.01148  0.000370621   0.00204668 
         800      38.8042      1.01147  0.000367584   0.00204657 
         800      39.0751      1.01147  0.000364792   0.00204669 
         800      39.3469      1.01146  0.000362496   0.00204708 
         800      39.6197      1.01146  0.000359109   0.00204667 
         800      39.8934      1.01146  0.000356098   0.00204667 
         800       40.168      1.01145  0.000353372   0.00204685 
         800      40.4436      1.01144  0.000350786   0.00204704 
         800      40.7202      1.01144  0.000348195   0.00204719 
         800      40.9977      1.01143  0.000345488   0.00204725 
         800      41.2761      1.01143  0.000342595   0.00204724 
         800      41.5554      1.01143  0.000339503   0.00204717 
         800      41.8358      1.01142  0.000336245   0.00204708 
         800       42.117      1.01142  0.000332895   0.00204701 
         800      42.3992      1.01141  0.000329545   0.00204696 
         800      42.6823      1.01141  0.000326289   0.00204696 
         800      42.9664      1.01141  0.000323205   0.00204701 
         800      43.2514       1.0114  0.000320344    0.0020471 
         800      43.5373       1.0114  0.000317704   0.00204722 
         800      43.8243      1.01139  0.000315228   0.00204736 
         800      44.1121      1.01139  0.000312801   0.00204749 
         800      44.4009      1.01138  0.000310248   0.00204763 
         800      44.6906      1.01138  0.000307343   0.00204779 
         800      44.9813      1.01138  0.000303822   0.00204803 
         800      45.2729      1.01137    0.0002994   0.00204842 
         800      45.5654      1.01137  0.000296699   0.00204783 
         800      45.8589      1.01137  0.000293492   0.00204734 
         800      46.1534      1.01136  0.000290054   0.00204705 
         800      46.4488      1.01136  0.000286754   0.00204703 
         800      46.7451      1.01136  0.000283845   0.00204732 
         800      47.0423      1.01136   0.00028136   0.00204785 
         800      47.3406      1.01136  0.000278939   0.00204843 
         800      47.6397      1.01135   0.00027563   0.00204859 
         800      47.9398      1.01134  0.000269614   0.00204752 
         800      48.2409      1.01133  0.000267673   0.00204757 
         800      48.5428      1.01133  0.000266467   0.00204808 
         800      48.8457      1.01133  0.000263994   0.00204832 
         800      49.1496      1.01133  0.000260669   0.00204839 
         800      49.4545      1.01133  0.000256847   0.00204838 
         800      49.7602      1.01133  0.000252819   0.00204831 
         800      50.0668      1.01132  0.000248799   0.00204824 
         800      50.3744      1.01132  0.000244939   0.00204817 
         800      50.6831      1.01132  0.000241323   0.00204813 
         800      50.9926      1.01131  0.000237986   0.00204811 
         800       51.303      1.01131  0.000234913   0.00204812 
         800      51.6144       1.0113  0.000232057   0.00204815 
         800      51.9268       1.0113  0.000229344   0.00204819 
         800        52.24      1.01129  0.000226694   0.00204825 
         800      52.5542      1.01129  0.000224018    0.0020483 
         800      52.8694      1.01129  0.000221238   0.00204836 
         800      53.1856      1.01128  0.000218289    0.0020484 
         800      53.5026      1.01128  0.000215129   0.00204844 
         800      53.8205      1.01128  0.000211738   0.00204848 
         800      54.1396      1.01127  0.000208121    0.0020485 
         800      54.4594      1.01127  0.000204309   0.00204852 
         800      54.7802      1.01127  0.000200353   0.00204853 
         800      55.1019      1.01127  0.000196318   0.00204855 
         800      55.4247      1.01126  0.000192272   0.00204856 
         800      55.7483      1.01126   0.00018829   0.00204857 
         800      56.0729      1.01126  0.000184426   0.00204858 
         800      56.3984      1.01126  0.000180716   0.00204859 
         800       56.725      1.01126   0.00017753   0.00204864 
         800      57.0523      1.01126  0.000174796   0.00204874 
         800      57.3807      1.01126  0.000172273   0.00204884 
         800      57.7099      1.01125  0.000169835   0.00204894 
         800      58.0403      1.01125  0.000167301   0.00204903 
         800      58.3714      1.01125  0.000164455   0.00204909 
         800      58.7035      1.01124  0.000161075   0.00204913 
         800      59.0367      1.01124  0.000156992   0.00204915 
         800      59.3707      1.01123  0.000152169   0.00204917 
         800      59.7056      1.01122  0.000146806   0.00204923 
         800      60.0414      1.01121  0.000141486   0.00204941 
         800      60.3784       1.0112  0.000137358   0.00204981 
         800      60.7161       1.0112   0.00013638   0.00205059 
         800      61.0548      1.01122  0.000141601   0.00205196 
         800      61.3944      1.01123  0.000131032   0.00205014 
         800      61.7351      1.01124  0.000124046    0.0020486 
         800      62.0767      1.01125  0.000120664   0.00204703 
         800      62.4191      1.01126  0.000117478   0.00204712 
         800      62.7625      1.01125  0.000113846   0.00204841 
         800       63.107      1.01125  0.000111126   0.00204922 
         800      63.4523      1.01124  0.000108635   0.00204967 
         800      63.7985      1.01122  0.000105974   0.00204987 
         800      64.1458       1.0112  0.000102954   0.00204992 
         800      64.4939      1.01119  9.95283e-05   0.00204988 
         800       64.843      1.01117  9.57423e-05    0.0020498 
         800      65.1929      1.01116  9.16903e-05    0.0020497 
         800       65.544      1.01116  8.74844e-05   0.00204961 
         800      65.8959      1.01117  8.32385e-05   0.00204955 
         800      66.2487      1.01117   7.9043e-05   0.00204951 
         800      66.6025      1.01119  7.49634e-05    0.0020495 
         800      66.9573       1.0112  7.10334e-05   0.00204951 
         800       67.313      1.01122  6.72625e-05   0.00204953 
         800      67.6695      1.01123  6.36304e-05   0.00204957 
         800      68.0271      1.01124  6.00992e-05    0.0020496 
         800      68.3857      1.01124  5.66182e-05   0.00204963 
         800      68.7451      1.01123  5.31371e-05   0.00204965 
         800      69.1055      1.01122  4.96046e-05   0.00204965 
         800      69.4669       1.0112  4.59799e-05   0.00204964 
         800      69.8291      1.01119  4.22411e-05   0.00204961 
         800      70.1923      1.01117  3.83809e-05   0.00204956 
         800      70.5564      1.01116  3.44128e-05   0.00204951 
         800      70.9217      1.01116  3.03678e-05   0.00204945 
         800      71.2877      1.01116  2.62985e-05   0.00204938 
         800      71.6546      1.01117   2.2265e-05   0.00204932 
         800      72.0225      1.01115  1.83372e-05   0.00204928 
         800      72.3915      1.01108   1.4586e-05   0.00204924 
         800      72.7613      1.01091  1.10863e-05   0.00204923 
         800       73.132      1.01055  7.90597e-06   0.00204925 
         800      73.5036       1.0099  5.11477e-06    0.0020493 
         800      73.8764      1.00877  2.79088e-06   0.00204939 
         800      74.2499      1.00696  1.04145e-06   0.00204952 
         800      74.6244      1.00417  2.53725e-08    0.0020497 
         800           75            1           -0   0.00204994 
