Variables = x, y, u, v, p

Zone, I=800, F=POINT
          16            1   0.00111725 -0.000846621  0.000374522 
     16.0001            1   0.00111726  -0.00084666  0.000374564 
     16.0005            1   0.00111729 -0.000846778  0.000374691 
     16.0011            1   0.00111734 -0.000846975  0.000374902 
      16.002            1   0.00111741  -0.00084725  0.000375198 
     16.0031            1   0.00111751 -0.000847603  0.000375579 
     16.0045            1   0.00111762 -0.000848035  0.000376045 
     16.0061            1   0.00111775 -0.000848545  0.000376596 
      16.008            1   0.00111791 -0.000849133  0.000377232 
     16.0101            1   0.00111808 -0.000849799  0.000377955 
     16.0125            1   0.00111827 -0.000850542  0.000378762 
     16.0152            1   0.00111847 -0.000851363  0.000379657 
      16.018            1    0.0011187 -0.000852261  0.000380637 
     16.0212            1   0.00111894 -0.000853235  0.000381706 
     16.0246            1    0.0011192 -0.000854285   0.00038286 
     16.0282            1   0.00111947 -0.000855413  0.000384104 
     16.0321            1   0.00111976 -0.000856616  0.000385437 
     16.0362            1   0.00112006 -0.000857892  0.000386857 
     16.0406            1   0.00112038 -0.000859245  0.000388368 
     16.0452            1    0.0011207 -0.000860671  0.000389968 
     16.0501            1   0.00112104 -0.000862171   0.00039166 
     16.0553            1   0.00112138 -0.000863744  0.000393442 
     16.0606            1   0.00112173  -0.00086539  0.000395318 
     16.0663            1   0.00112209 -0.000867106  0.000397285 
     16.0722            1   0.00112246 -0.000868895  0.000399347 
     16.0783            1   0.00112283 -0.000870755  0.000401505 
     16.0847            1    0.0011232 -0.000872683  0.000403756 
     16.0914            1   0.00112357 -0.000874681  0.000406104 
     16.0982            1   0.00112394 -0.000876745  0.000408548 
     16.1054            1   0.00112431 -0.000878879  0.000411093 
     16.1128            1   0.00112468 -0.000881077  0.000413734 
     16.1204            1   0.00112504 -0.000883342  0.000416478 
     16.1283            1    0.0011254 -0.000885672  0.000419323 
     16.1365            1   0.00112574 -0.000888062  0.000422267 
     16.1449            1   0.00112607 -0.000890517  0.000425318 
     16.1535            1   0.00112639 -0.000893031   0.00042847 
     16.1624            1    0.0011267 -0.000895606  0.000431731 
     16.1715            1   0.00112699 -0.000898238  0.000435095 
     16.1809            1   0.00112726 -0.000900929   0.00043857 
     16.1906            1    0.0011275 -0.000903675  0.000442155 
     16.2005            1   0.00112773 -0.000906474  0.000445847 
     16.2107            1   0.00112792 -0.000909328  0.000449654 
      16.221            1   0.00112809  -0.00091223  0.000453571 
     16.2317            1   0.00112823 -0.000915184  0.000457606 
     16.2426            1   0.00112833 -0.000918184  0.000461753 
     16.2538            1    0.0011284 -0.000921232  0.000466021 
     16.2652            1   0.00112843 -0.000924321  0.000470403 
     16.2768            1   0.00112841 -0.000927455   0.00047491 
     16.2887            1   0.00112835 -0.000930629  0.000479538 
     16.3009            1   0.00112825 -0.000933838  0.000484285 
     16.3133            1   0.00112809 -0.000937085  0.000489161 
     16.3259            1   0.00112788 -0.000940363  0.000494158 
     16.3388            1   0.00112761 -0.000943675  0.000499287 
      16.352            1   0.00112728 -0.000947012  0.000504541 
     16.3654            1   0.00112688 -0.000950378  0.000509929 
     16.3791            1   0.00112642 -0.000953767   0.00051545 
      16.393            1   0.00112588 -0.000957174    0.0005211 
     16.4071            1   0.00112527 -0.000960601  0.000526889 
     16.4215            1   0.00112457  -0.00096404   0.00053281 
     16.4362            1   0.00112379 -0.000967494  0.000538875 
     16.4511            1   0.00112289 -0.000970962  0.000545075 
     16.4663            1   0.00112184  -0.00097447  0.000551424 
     16.4817            1   0.00112068 -0.000977974  0.000557914 
     16.4974            1   0.00111942 -0.000981478  0.000564555 
     16.5133            1   0.00111804 -0.000984976  0.000571345 
     16.5294            1   0.00111656 -0.000988464  0.000578281 
     16.5459            1   0.00111495 -0.000991945  0.000585374 
     16.5625            1   0.00111322 -0.000995412  0.000592615 
     16.5794            1   0.00111135 -0.000998868  0.000600019 
     16.5966            1   0.00110935  -0.00100231  0.000607575 
      16.614            1   0.00110721  -0.00100572  0.000615293 
     16.6317            1   0.00110496  -0.00100906  0.000623159 
     16.6496            1   0.00110257  -0.00101238  0.000631179 
     16.6678            1   0.00110001  -0.00101568   0.00063937 
     16.6862            1   0.00109729  -0.00101894  0.000647718 
     16.7049            1   0.00109439  -0.00102216   0.00065624 
     16.7238            1   0.00109132  -0.00102533  0.000664922 
      16.743            1   0.00108807  -0.00102845  0.000673782 
     16.7624            1   0.00108463  -0.00103151  0.000682813 
     16.7821            1   0.00108099  -0.00103451   0.00069201 
      16.802            1   0.00107715  -0.00103743  0.000701389 
     16.8222            1    0.0010731  -0.00104028  0.000710936 
     16.8426            1   0.00106883  -0.00104304  0.000720668 
     16.8633            1   0.00106434  -0.00104572  0.000730571 
     16.8842            1   0.00105962  -0.00104829  0.000740662 
     16.9054            1   0.00105466  -0.00105076  0.000750926 
     16.9268            1   0.00104946  -0.00105313  0.000761381 
     16.9485            1     0.001044  -0.00105538  0.000772018 
     16.9704            1   0.00103829   -0.0010575  0.000782832 
     16.9926            1   0.00103231  -0.00105949   0.00079384 
      17.015            1   0.00102605  -0.00106135  0.000805025 
     17.0377            1   0.00101951  -0.00106306  0.000816407 
     17.0606            1   0.00101268  -0.00106463  0.000827966 
     17.0838            1   0.00100555  -0.00106604  0.000839723 
     17.1073            1  0.000998117  -0.00106728  0.000851668 
     17.1309            1  0.000990372  -0.00106835  0.000863793 
     17.1549            1  0.000982297  -0.00106925  0.000876118 
     17.1791            1  0.000973898  -0.00106995  0.000888622 
     17.2035            1  0.000965152  -0.00107047  0.000901325 
     17.2282            1  0.000956064  -0.00107078  0.000914209 
     17.2531            1  0.000946612  -0.00107088  0.000927292 
     17.2783            1  0.000936793  -0.00107077  0.000940566 
     17.3037            1  0.000926607  -0.00107042  0.000954018 
     17.3294            1  0.000916028  -0.00106984   0.00096767 
     17.3554            1  0.000905063  -0.00106901  0.000981501 
     17.3816            1  0.000893686  -0.00106792  0.000995531 
      17.408            1  0.000881905  -0.00106657   0.00100974 
     17.4347            1  0.000869691  -0.00106493   0.00102414 
     17.4616            1  0.000857055  -0.00106299   0.00103872 
     17.4888            1  0.000843964  -0.00106075    0.0010535 
     17.5163            1   0.00083042  -0.00105818   0.00106847 
      17.544            1  0.000816422  -0.00105527   0.00108361 
     17.5719            1  0.000801936  -0.00105201   0.00109894 
     17.6001            1  0.000786976  -0.00104837   0.00111445 
     17.6286            1  0.000771472  -0.00104451   0.00113011 
     17.6572            1  0.000755459  -0.00104028   0.00114593 
     17.6862            1  0.000738913  -0.00103564   0.00116193 
     17.7154            1  0.000721845  -0.00103058    0.0011781 
     17.7448            1  0.000704266  -0.00102511   0.00119442 
     17.7746            1  0.000686146  -0.00101922   0.00121092 
     17.8045            1  0.000667524  -0.00101292   0.00122756 
     17.8347            1  0.000648367   -0.0010062   0.00124438 
     17.8651            1   0.00062868 -0.000999028   0.00126131 
     17.8959            1  0.000608413 -0.000991385    0.0012784 
     17.9268            1  0.000587585 -0.000983266   0.00129561 
      17.958            1  0.000566147 -0.000974644   0.00131296 
     17.9895            1  0.000544104 -0.000965512   0.00133043 
     18.0212            1  0.000521463 -0.000955862   0.00134801 
     18.0531            1  0.000498177 -0.000945668   0.00136572 
     18.0853            1  0.000474276 -0.000934933   0.00138353 
     18.1178            1  0.000449713 -0.000923626   0.00140144 
     18.1505            1  0.000424521 -0.000911755   0.00141944 
     18.1834            1  0.000398653 -0.000899287   0.00143754 
     18.2167            1  0.000372121  -0.00088622   0.00145571 
     18.2501            1  0.000344944 -0.000872552   0.00147393 
     18.2838            1  0.000317071 -0.000858248   0.00149223 
     18.3178            1  0.000288542 -0.000843319   0.00151056 
      18.352            1  0.000259304 -0.000827725   0.00152894 
     18.3864            1  0.000229399  -0.00081148   0.00154732 
     18.4212            1  0.000198773  -0.00079454   0.00156574 
     18.4561            1  0.000167444 -0.000776904   0.00158416 
     18.4913            1  0.000135431 -0.000758569   0.00160256 
     18.5268            1  0.000102676  -0.00073949   0.00162095 
     18.5625            1  6.92269e-05 -0.000719678    0.0016393 
     18.5985            1  3.50237e-05 -0.000699082   0.00165763 
     18.6347            1  1.18192e-07 -0.000677716   0.00167589 
     18.6712            1 -3.55619e-05 -0.000655545   0.00169411 
     18.7079            1 -7.20132e-05 -0.000632696   0.00171219 
     18.7448            1 -0.000109175 -0.000609006   0.00173019 
     18.7821            1 -0.000146972 -0.000584474   0.00174807 
     18.8195            1 -0.000185547 -0.000559148   0.00176582 
     18.8573            1 -0.000224937 -0.000532982   0.00178343 
     18.8952            1 -0.000264951 -0.000505971   0.00180085 
     18.9334            1 -0.000305701 -0.000478065    0.0018181 
     18.9719            1 -0.000347152 -0.000449299   0.00183512 
     19.0106            1 -0.000389378 -0.000419622   0.00185194 
     19.0496            1 -0.000432346 -0.000389047   0.00186851 
     19.0888            1 -0.000476008 -0.000357592    0.0018848 
     19.1283            1 -0.000520419 -0.000325198   0.00190083 
      19.168            1 -0.000565488  -0.00029191   0.00191653 
      19.208            1 -0.000611272 -0.000257667   0.00193193 
     19.2482            1 -0.000657681 -0.000222516   0.00194695 
     19.2887            1  -0.00070478 -0.000186393   0.00196162 
     19.3294            1 -0.000752526  -0.00014932   0.00197588 
     19.3704            1 -0.000800877 -0.000111321   0.00198971 
     19.4116            1 -0.000849909 -7.23313e-05    0.0020031 
     19.4531            1 -0.000899543 -3.24074e-05   0.00201601 
     19.4948            1 -0.000949849  8.51553e-06   0.00202842 
     19.5368            1  -0.00100073  5.03748e-05    0.0020403 
     19.5791            1  -0.00105222  9.32352e-05   0.00205164 
     19.6215            1  -0.00110418  0.000137025    0.0020624 
     19.6643            1  -0.00115657  0.000181808   0.00207256 
     19.7073            1  -0.00120997  0.000227531   0.00208208 
     19.7505            1  -0.00126384  0.000274159   0.00209091 
      19.794            1  -0.00131776  0.000321858   0.00209904 
     19.8377            1  -0.00137197  0.000370486   0.00210644 
     19.8817            1  -0.00142661  0.000420107    0.0021131 
     19.9259            1  -0.00148159  0.000470622   0.00211897 
     19.9704            1  -0.00153696  0.000522101   0.00212401 
     20.0152            1  -0.00159264  0.000574493    0.0021282 
     20.0601            1  -0.00164853  0.000627741    0.0021315 
     20.1054            1  -0.00170466  0.000681918   0.00213387 
     20.1508            1  -0.00176089  0.000736922   0.00213529 
     20.1966            1  -0.00181728  0.000792824   0.00213571 
     20.2426            1  -0.00187371  0.000849518   0.00213512 
     20.2888            1  -0.00193024  0.000907072   0.00213347 
     20.3353            1  -0.00198675  0.000965372   0.00213073 
     20.3821            1  -0.00204322    0.0010245   0.00212687 
     20.4291            1  -0.00209961   0.00108438   0.00212186 
     20.4763            1  -0.00215579   0.00114493   0.00211565 
     20.5238            1  -0.00221171   0.00120621   0.00210821 
     20.5715            1   -0.0022671    0.0012681    0.0020995 
     20.6195            1  -0.00232215   0.00133064   0.00208948 
     20.6678            1  -0.00237715   0.00139372    0.0020781 
     20.7163            1   -0.0024317   0.00145736   0.00206537 
      20.765            1  -0.00248571   0.00152148   0.00205125 
      20.814            1  -0.00253907   0.00158602    0.0020357 
     20.8633            1  -0.00259177   0.00165101   0.00201867 
     20.9127            1  -0.00264367   0.00171631   0.00200014 
     20.9625            1  -0.00269477   0.00178197   0.00198005 
     21.0125            1   -0.0027449   0.00184781    0.0019584 
     21.0628            1  -0.00279407    0.0019139   0.00193513 
     21.1133            1  -0.00284216    0.0019801   0.00191022 
      21.164            1  -0.00288906   0.00204632   0.00188367 
      21.215            1  -0.00293477   0.00211258   0.00185541 
     21.2663            1  -0.00297913   0.00217872   0.00182545 
     21.3178            1  -0.00302211   0.00224478   0.00179371 
     21.3695            1   -0.0030635   0.00231057   0.00176022 
     21.4215            1  -0.00310328   0.00237611    0.0017249 
     21.4738            1  -0.00314131   0.00244124   0.00168778 
     21.5263            1  -0.00317753   0.00250591   0.00164877 
     21.5791            1  -0.00321189   0.00257003    0.0016079 
      21.632            1  -0.00324422   0.00263346   0.00156519 
     21.6853            1  -0.00327444   0.00269621   0.00152053 
     21.7388            1   -0.0033024   0.00275808   0.00147399 
     21.7926            1  -0.00332805   0.00281907   0.00142548 
     21.8466            1  -0.00335125   0.00287898   0.00137506 
     21.9008            1  -0.00337192   0.00293779   0.00132265 
     21.9554            1  -0.00338994   0.00299536   0.00126829 
     22.0101            1  -0.00340519   0.00305152   0.00121201 
     22.0651            1  -0.00341757   0.00310624   0.00115373 
     22.1204            1  -0.00342695   0.00315934   0.00109355 
     22.1759            1  -0.00343324   0.00321076   0.00103137 
     22.2317            1  -0.00343633   0.00326032    0.0009673 
     22.2877            1  -0.00343608   0.00330796  0.000901245 
      22.344            1  -0.00343232    0.0033535  0.000833295 
     22.4005            1   -0.0034251   0.00339677  0.000763496 
     22.4573            1  -0.00341426   0.00343776   0.00069178 
     22.5142            1  -0.00339962   0.00347624  0.000618291 
     22.5715            1  -0.00338108   0.00351213  0.000542941 
      22.629            1  -0.00335857   0.00354526  0.000465887 
     22.6868            1  -0.00333199   0.00357552  0.000387047 
     22.7448            1  -0.00330126   0.00360274  0.000306591 
     22.8031            1   -0.0032662   0.00362682  0.000224444 
     22.8616            1  -0.00322671   0.00364759  0.000140723 
     22.9204            1  -0.00318274   0.00366492   5.5561e-05 
     22.9794            1  -0.00313419   0.00367869 -3.11094e-05 
     23.0387            1  -0.00308106   0.00368874 -0.000119084 
     23.0982            1  -0.00302312   0.00369495 -0.000208432 
      23.158            1  -0.00296035   0.00369718 -0.000298926 
      23.218            1   -0.0028926    0.0036953 -0.000390624 
     23.2783            1  -0.00281989   0.00368917 -0.000483362 
     23.3388            1  -0.00274219   0.00367869 -0.000576968 
     23.3996            1  -0.00265926   0.00366369 -0.000671491 
     23.4606            1  -0.00257117   0.00364409 -0.000766671 
     23.5219            1  -0.00247782   0.00361974 -0.000862555 
     23.5834            1  -0.00237925   0.00359055 -0.000958875 
     23.6452            1  -0.00227523   0.00355636  -0.00105566 
     23.7072            1  -0.00216589   0.00351712  -0.00115264 
     23.7695            1  -0.00205096   0.00347269  -0.00124981 
     23.8321            1  -0.00193057   0.00342298  -0.00134699 
     23.8948            1  -0.00180474   0.00336795  -0.00144396 
     23.9579            1  -0.00167323   0.00330743  -0.00154072 
     24.0211            1  -0.00153625   0.00324145  -0.00163698 
     24.0847            1  -0.00139358   0.00316981  -0.00173275 
     24.1484            1  -0.00124546   0.00309256  -0.00182771 
     24.2125            1  -0.00109155   0.00300949  -0.00192186 
     24.2768            1 -0.000932021   0.00292064  -0.00201497 
     24.3413            1 -0.000766991   0.00282599   -0.0021068 
     24.4061            1 -0.000596116   0.00272532  -0.00219733 
     24.4711            1 -0.000419949    0.0026188  -0.00228625 
     24.5364            1 -0.000238168   0.00250619  -0.00237352 
     24.6019            1 -5.09897e-05   0.00238765  -0.00245884 
     24.6678            1  0.000141794   0.00226295  -0.00254217 
     24.7338            1   0.00033997   0.00213217  -0.00262324 
     24.8001            1  0.000543314    0.0019954  -0.00270181 
     24.8666            1  0.000751995   0.00185239  -0.00277781 
     24.9334            1  0.000965856   0.00170335  -0.00285092 
     25.0005            1   0.00118489   0.00154803  -0.00292106 
     25.0677            1   0.00140865   0.00138668  -0.00298792 
     25.1353            1   0.00163739   0.00121906  -0.00305139 
     25.2031            1   0.00187056   0.00104544  -0.00311114 
     25.2711            1   0.00210829  0.000865561  -0.00316703 
     25.3395            1   0.00235021  0.000679601  -0.00321877 
      25.408            1   0.00259599  0.000487617  -0.00326614 
     25.4768            1   0.00284562  0.000289547  -0.00330889 
     25.5458            1   0.00309842  8.56872e-05  -0.00334672 
     25.6151            1   0.00335456 -0.000124227  -0.00337946 
     25.6846            1   0.00361323 -0.000339771  -0.00340672 
     25.7545            1   0.00387453 -0.000561139   -0.0034283 
     25.8245            1   0.00413781 -0.000788051  -0.00344387 
     25.8948            1   0.00440243  -0.00102016  -0.00345312 
     25.9654            1   0.00466839  -0.00125764  -0.00345577 
     26.0362            1   0.00493477  -0.00149991   -0.0034515 
     26.1072            1   0.00520141  -0.00174709  -0.00343997 
     26.1785            1   0.00546738  -0.00199855  -0.00342089 
     26.2501            1   0.00573249  -0.00225432   -0.0033939 
     26.3219            1   0.00599574  -0.00251365  -0.00335874 
     26.3939            1   0.00625697  -0.00277656  -0.00331501 
     26.4663            1   0.00651528  -0.00304239  -0.00326243 
     26.5388            1   0.00676979  -0.00331046  -0.00320074 
     26.6116            1   0.00702021  -0.00358064  -0.00312956 
     26.6846            1   0.00726544  -0.00385193  -0.00304871 
      26.758            1   0.00750521  -0.00412408   -0.0029578 
     26.8315            1   0.00773847  -0.00439599  -0.00285672 
     26.9053            1   0.00796489  -0.00466739  -0.00274514 
     26.9794            1   0.00818341  -0.00493724  -0.00262291 
     27.0537            1    0.0083933  -0.00520452     -0.00249 
     27.1283            1   0.00859426  -0.00546878  -0.00234609 
     27.2031            1   0.00878529  -0.00572868  -0.00219134 
     27.2782            1   0.00896603  -0.00598368  -0.00202547 
     27.3534            1    0.0091357  -0.00623242  -0.00184881 
      27.429            1   0.00929405  -0.00647424  -0.00166114 
     27.5049            1   0.00944033  -0.00670795  -0.00146272 
     27.5809            1   0.00957405  -0.00693235  -0.00125396 
     27.6572            1   0.00969501  -0.00714673  -0.00103478 
     27.7338            1   0.00980262  -0.00734973 -0.000805854 
     27.8106            1   0.00989673   -0.0075407 -0.000567204 
     27.8876            1   0.00997696  -0.00771833 -0.000319665 
      27.965            1    0.0100432  -0.00788196 -6.33488e-05 
     28.0425            1     0.010095  -0.00803049  0.000200789 
     28.1204            1    0.0101327  -0.00816327   0.00047254 
     28.1985            1    0.0101558  -0.00827943  0.000751067 
     28.2768            1    0.0101644  -0.00837822   0.00103547 
     28.3554            1    0.0101583  -0.00845912   0.00132549 
     28.4341            1    0.0101374  -0.00852148   0.00161996 
     28.5132            1    0.0101015  -0.00856492   0.00191862 
     28.5925            1    0.0100507  -0.00858892   0.00222029 
     28.6721            1   0.00998452  -0.00859315   0.00252473 
      28.752            1   0.00990292  -0.00857723     0.002831 
      28.832            1   0.00980568  -0.00854091   0.00313819 
     28.9124            1   0.00969237  -0.00848381   0.00344611 
     28.9929            1   0.00956282  -0.00840573   0.00375363 
     29.0738            1   0.00941646  -0.00830622    0.0040606 
     29.1548            1   0.00925315  -0.00818508    0.0043659 
     29.2362            1   0.00907223   -0.0080417   0.00466939 
     29.3178            1   0.00887346  -0.00787571   0.00497016 
     29.3996            1   0.00865667  -0.00768671   0.00526733 
     29.4817            1   0.00842123  -0.00747381   0.00556063 
      29.564            1   0.00816732  -0.00723662   0.00584884 
     29.6466            1   0.00789445  -0.00697399   0.00613157 
     29.7294            1   0.00760312  -0.00668545   0.00640742 
     29.8125            1    0.0072931   -0.0063696   0.00667579 
     29.8958            1   0.00696535  -0.00602592   0.00693506 
     29.9794            1   0.00662007  -0.00565281   0.00718428 
     30.0633            1   0.00625855  -0.00524946   0.00742171 
     30.1473            1   0.00588246  -0.00481514   0.00764542 
     30.2317            1   0.00549301  -0.00434817   0.00785379 
     30.3162            1   0.00509301  -0.00384842   0.00804424 
     30.4011            1   0.00468457   -0.0033144   0.00821456 
     30.4861            1   0.00427156  -0.00274657   0.00836164 
     30.5715            1   0.00385714  -0.00214403   0.00848261 
     30.6571            1   0.00344601   -0.0015078   0.00857391 
     30.7429            1   0.00304344 -0.000839696    0.0086318 
      30.829            1   0.00265424 -0.000140815   0.00865247 
     30.9153            1   0.00228482  0.000584442   0.00863181 
      31.002            1   0.00194086   0.00133263   0.00856572 
     31.0888            1   0.00162887    0.0020964   0.00845042 
     31.1759            1   0.00135406   0.00286909   0.00828226 
     31.2632            1   0.00112178   0.00363974   0.00805884 
     31.3508            1  0.000935028   0.00439805   0.00777827 
     31.4387            1   0.00079527   0.00513028   0.00744081 
     31.5267            1  0.000700957    0.0058217   0.00704901 
     31.6151            1  0.000646756   0.00645906   0.00660693 
     31.7037            1  0.000623785   0.00702807   0.00612262 
     31.7926            1  0.000619364   0.00751886   0.00560519 
     31.8816            1  0.000617954   0.00792389   0.00506732 
      31.971            1   0.00060264   0.00824215   0.00452096 
     32.0606            1  0.000557048   0.00847713   0.00397902 
     32.1504            1  0.000467553   0.00863745   0.00345273 
     32.2406            1  0.000324332   0.00873566   0.00294934 
     32.3309            1  0.000122813   0.00878542   0.00247458 
     32.4215            1 -0.000137527   0.00880045   0.00202949 
     32.5123            1 -0.000452791   0.00879264   0.00161403 
     32.6034            1 -0.000817413   0.00877144   0.00122497 
     32.6948            1  -0.00122384   0.00874362  0.000859055 
     32.7864            1  -0.00166388   0.00871348  0.000512582 
     32.8783            1  -0.00213082    0.0086832  0.000181102 
     32.9703            1  -0.00261715   0.00865351 -0.000138376 
     33.0627            1  -0.00311768   0.00862396 -0.000449376 
     33.1553            1  -0.00362658   0.00859349 -0.000753847 
     33.2482            1   -0.0041404   0.00856052   -0.0010542 
     33.3413            1  -0.00465478   0.00852342  -0.00135138 
     33.4346            1  -0.00516757    0.0084804  -0.00164686 
     33.5283            1  -0.00567591   0.00842978  -0.00194104 
     33.6221            1  -0.00617733   0.00837004  -0.00223401 
     33.7162            1  -0.00667087   0.00829964  -0.00252633 
     33.8106            1  -0.00715417   0.00821743  -0.00281741 
     33.9052            1  -0.00762676   0.00812213  -0.00310742 
          34            1  -0.00808672   0.00801297  -0.00339548 
     34.0952            1  -0.00853364   0.00788897  -0.00368153 
     34.1906            1  -0.00896629   0.00774955  -0.00396472 
     34.2861            1  -0.00938335   0.00759437  -0.00424416 
      34.382            1  -0.00978471   0.00742277  -0.00451955 
     34.4781            1    -0.010169   0.00723482  -0.00478969 
     34.5745            1   -0.0105361   0.00703006  -0.00505422 
     34.6711            1   -0.0108846   0.00680882  -0.00531192 
      34.768            1   -0.0112144   0.00657085  -0.00556236 
     34.8651            1   -0.0115247   0.00631651  -0.00580452 
     34.9625            1   -0.0118145    0.0060463  -0.00603739 
     35.0601            1   -0.0120839    0.0057602  -0.00626054 
     35.1579            1   -0.0123317   0.00545909  -0.00647282 
     35.2561            1   -0.0125578   0.00514305  -0.00667379 
     35.3544            1   -0.0127616   0.00481316  -0.00686238 
     35.4531            1   -0.0129422   0.00446973  -0.00703816 
     35.5519            1   -0.0130993   0.00411396  -0.00720018 
     35.6511            1    -0.013233   0.00374606    -0.007348 
     35.7505            1   -0.0133425    0.0033673  -0.00748091 
       35.85            1   -0.0134275   0.00297884  -0.00759822 
       35.95            1   -0.0134881   0.00258097  -0.00769956 
       36.05            1   -0.0135227   0.00217572  -0.00778433 
     36.1504            1   -0.0135324   0.00176325  -0.00785218 
      36.251            1    -0.013517   0.00134522  -0.00790261 
     36.3519            1    -0.013476  0.000922252   -0.0079354 
     36.4531            1   -0.0134083  0.000495893  -0.00795017 
     36.5544            1   -0.0133151  6.77591e-05  -0.00794671 
     36.6561            1   -0.0131954 -0.000361816  -0.00792483 
     36.7579            1   -0.0130496 -0.000790664   -0.0078845 
     36.8601            1   -0.0128771  -0.00121832  -0.00782554 
     36.9624            1   -0.0126802  -0.00164309  -0.00774804 
     37.0651            1   -0.0124583  -0.00206412  -0.00765198 
     37.1679            1   -0.0122092  -0.00247947  -0.00753763 
     37.2711            1   -0.0119358  -0.00288884   -0.0074048 
     37.3745            1   -0.0116384  -0.00329018   -0.0072542 
     37.4781            1   -0.0113151  -0.00368225  -0.00708601 
      37.582            1   -0.0109686  -0.00406439  -0.00690029 
     37.6861            1   -0.0105992  -0.00443494   -0.0066979 
     37.7905            1   -0.0102067  -0.00479331  -0.00647884 
     37.8951            1   -0.0097921  -0.00513759   -0.0062441 
          38            1  -0.00935532  -0.00546765  -0.00599383 
     38.1052            1  -0.00889819  -0.00578172  -0.00572883 
     38.2106            1  -0.00842162  -0.00607897  -0.00545028 
     38.3162            1   -0.0079242   -0.0063583  -0.00515801 
     38.4221            1  -0.00741136  -0.00661917  -0.00485355 
     38.5283            1  -0.00687751  -0.00686074  -0.00453731 
     38.6346            1  -0.00633256  -0.00708177   -0.0042104 
     38.7413            1  -0.00576759  -0.00728198  -0.00387327 
     38.8482            1  -0.00519101  -0.00746044  -0.00352718 
     38.9553            1  -0.00460172  -0.00761705  -0.00317362 
     39.0627            1    -0.003999  -0.00775087  -0.00281291 
     39.1703            1  -0.00338497  -0.00786117  -0.00244647 
     39.2783            1  -0.00276448  -0.00794858  -0.00207486 
     39.3864            1  -0.00213222  -0.00801141  -0.00169996 
     39.4948            1  -0.00149866   -0.0080511  -0.00132202 
     39.6034            1 -0.000855124  -0.00806566 -0.000942732 
     39.7123            1 -0.000210383  -0.00805644 -0.000562766 
     39.8215            1   0.00043975  -0.00802289 -0.000183605 
     39.9309            1   0.00108847  -0.00796574  0.000193734 
     40.0405            1   0.00172995  -0.00788485  0.000568221 
     40.1504            1   0.00237267  -0.00777991   0.00093808 
     40.2606            1   0.00301143  -0.00765149   0.00130335 
     40.3709            1   0.00364436  -0.00750021   0.00166192 
     40.4816            1    0.0042708  -0.00732638   0.00201331 
     40.5926            1   0.00488833  -0.00713069   0.00235633 
     40.7037            1   0.00549484  -0.00691388   0.00268974 
     40.8151            1   0.00609039  -0.00667633   0.00301271 
     40.9267            1    0.0066717  -0.00641931   0.00332411 
     41.0387            1   0.00723876  -0.00614312   0.00362324 
     41.1508            1   0.00778896  -0.00584923   0.00390876 
     41.2632            1   0.00832139   -0.0055381   0.00418043 
     41.3759            1   0.00883431  -0.00521095    0.0044371 
     41.4888            1   0.00932612  -0.00486917   0.00467769 
      41.602            1   0.00979605  -0.00451343    0.0049019 