Variables = x, y, u, v, p

Zone, I=416, F=POINT
         -50            0            0            0     -352.435 
         -50     0.013333 -0.000603326 -9.50792e-08     -352.435 
         -50     0.053333 -0.000559197 -3.67207e-07     -352.435 
         -50         0.12 -0.000550694 -9.47424e-07     -352.435 
         -50     0.213332 -0.000549607 -1.99875e-06     -352.435 
         -50     0.333332 -0.000547795 -3.82364e-06     -352.435 
         -50         0.48 -0.000545067 -5.98852e-06     -352.435 
         -50     0.653331  -0.00054479 -8.24438e-06     -352.434 
         -50     0.853332 -0.000545621 -1.15537e-05     -352.434 
         -50         1.08   -0.0005459 -1.41117e-05     -352.433 
         -50      1.33333 -0.000547399 -1.68099e-05     -352.431 
         -50      1.61333 -0.000549935 -1.94281e-05      -352.43 
         -50         1.92 -0.000549391 -2.15623e-05     -352.427 
         -50      2.25333 -0.000545687 -2.32386e-05     -352.424 
         -50      2.61333 -0.000541384 -2.43632e-05      -352.42 
         -50            3 -0.000538386 -2.44848e-05     -352.415 
         -25            0           -0           -0     -343.098 
         -25     0.013333 -0.000510823 -2.21335e-08     -343.098 
         -25     0.053333 -0.000469549 -3.72659e-08     -343.098 
         -25         0.12 -0.000464544  5.77804e-08     -343.098 
         -25     0.213332  -0.00047557  3.86617e-07     -343.098 
         -25     0.333332 -0.000492106  9.96659e-07     -343.098 
         -25         0.48 -0.000506553  1.78584e-06     -343.098 
         -25     0.653331 -0.000515653  2.70597e-06     -343.098 
         -25     0.853332 -0.000516693  3.80335e-06     -343.098 
         -25         1.08 -0.000510066  4.80991e-06     -343.097 
         -25      1.33333 -0.000498866  5.58094e-06     -343.097 
         -25      1.61333 -0.000486156  6.05507e-06     -343.096 
         -25         1.92 -0.000478362  5.48987e-06     -343.096 
         -25      2.25333 -0.000467571   5.7236e-06     -343.095 
         -25      2.61333  -0.00045244  6.84332e-06     -343.094 
         -25            3 -0.000441808  6.37726e-06     -343.093 
           0            0            0            0     -334.333 
           0     0.013333  -0.00133417   0.00081644     -334.343 
           0     0.053333 -0.000814431  0.000415098     -334.357 
           0         0.12 -0.000619825  0.000273969     -334.373 
           0     0.213332 -0.000528589  0.000206551      -334.39 
           0     0.333332 -0.000481584  0.000165381     -334.407 
           0         0.48 -0.000450081  0.000135164     -334.424 
           0     0.653331 -0.000430494  0.000112874     -334.441 
           0     0.853332 -0.000420544  9.59763e-05     -334.456 
           0         1.08 -0.000419496  8.27527e-05     -334.472 
           0      1.33333 -0.000423961  7.22093e-05     -334.486 
           0      1.61333 -0.000428736  6.40117e-05       -334.5 
           0         1.92 -0.000433091  5.65341e-05     -334.513 
           0      2.25333 -0.000440151  5.04536e-05     -334.526 
           0      2.61333 -0.000446232  4.55798e-05     -334.537 
           0            3  -0.00044362  4.31573e-05     -334.548 
          20            0 -0.000382872  6.29737e-06     -328.292 
          20     0.013333 -0.000382353  6.21439e-06     -328.292 
          20     0.053333 -0.000381336  5.93336e-06     -328.292 
          20         0.12 -0.000381133  5.31588e-06     -328.292 
          20     0.213332 -0.000382574  4.37096e-06     -328.292 
          20     0.333332 -0.000383109  3.42598e-06     -328.292 
          20         0.48 -0.000383426  3.09554e-06     -328.292 
          20     0.653331 -0.000386699  1.56056e-06     -328.292 
          20     0.853332  -0.00039174 -9.72727e-07     -328.292 
          20         1.08 -0.000396892 -4.14808e-06     -328.292 
          20      1.33333 -0.000400805 -7.64411e-06     -328.292 
          20      1.61333 -0.000403145 -1.13213e-05     -328.292 
          20         1.92 -0.000404808 -1.52172e-05     -328.292 
          20      2.25333 -0.000407281 -1.93208e-05     -328.292 
          20      2.61333  -0.00041117    -2.32e-05     -328.292 
          20            3 -0.000414768 -2.58624e-05     -328.292 
          40            0  -0.00243725  0.000846313     -322.081 
          40     0.013333  -0.00242378  0.000847557     -322.081 
          40     0.053333  -0.00239416  0.000849161     -322.081 
          40         0.12  -0.00237805  0.000845196      -322.08 
          40     0.213332  -0.00240576  0.000828052      -322.08 
          40     0.333332  -0.00245919  0.000792142      -322.08 
          40         0.48  -0.00241697  0.000739551      -322.08 
          40     0.653331  -0.00217537  0.000676425      -322.08 
          40     0.853332  -0.00171605  0.000606335     -322.079 
          40         1.08  -0.00112632  0.000528468     -322.079 
          40      1.33333 -0.000527039  0.000443636     -322.078 
          40      1.61333  2.07638e-05  0.000353928     -322.077 
          40         1.92  0.000447174  0.000265477     -322.076 
          40      2.25333  0.000696413  0.000181295     -322.075 
          40      2.61333   0.00076276  0.000105118     -322.073 
          40            3  0.000705394  4.04735e-05     -322.072 
          60            0            0            0      -315.72 
          60     0.013333  -0.00114262  1.04354e-06      -315.72 
          60     0.053333  -0.00294739  1.31236e-05      -315.72 
          60         0.12  -0.00526843  4.20448e-05      -315.72 
          60     0.213332  -0.00709967  6.21178e-05      -315.72 
          60     0.333332  -0.00813106   3.1841e-05      -315.72 
          60         0.48  -0.00865564 -5.24945e-05      -315.72 
          60     0.653331  -0.00859106 -0.000134736      -315.72 
          60     0.853332  -0.00807784 -0.000194963      -315.72 
          60         1.08  -0.00718785 -0.000270636      -315.72 
          60      1.33333  -0.00547969 -0.000335337      -315.72 
          60      1.61333   -0.0033781 -0.000374165     -315.719 
          60         1.92  -0.00135741 -0.000390254     -315.719 
          60      2.25333  0.000274531 -0.000382802     -315.718 
          60      2.61333   0.00132406 -0.000363266     -315.717 
          60            3   0.00177042 -0.000334144     -315.716 
          80            0            0            0     -309.284 
          80     0.013333 -0.000827792  4.90884e-08     -309.284 
          80     0.053333  -0.00166519 -5.56166e-07     -309.284 
          80         0.12   -0.0025021 -9.92154e-06     -309.284 
          80     0.213332  -0.00283197 -4.46841e-05     -309.284 
          80     0.333332   -0.0026973 -0.000115271     -309.284 
          80         0.48  -0.00255933 -0.000218367     -309.284 
          80     0.653331  -0.00278695 -0.000341376     -309.284 
          80     0.853332  -0.00313072  -0.00044801     -309.284 
          80         1.08  -0.00288352 -0.000489236     -309.284 
          80      1.33333  -0.00213213 -0.000464192     -309.284 
          80      1.61333  -0.00134477 -0.000414425     -309.283 
          80         1.92 -0.000625939 -0.000355844     -309.283 
          80      2.25333 -4.59538e-05  -0.00028996     -309.283 
          80      2.61333  0.000332547 -0.000226137     -309.283 
          80            3  0.000492816 -0.000165593     -309.283 
         100            0           -0           -0     -302.898 
         100     0.013333 -0.000631254 -1.61042e-07     -302.898 
         100     0.053333 -0.000963674 -2.77703e-06     -302.898 
         100         0.12  -0.00125574 -1.45836e-05     -302.898 
         100     0.213332  -0.00130569  -4.4002e-05     -302.898 
         100     0.333332  -0.00117487 -9.44785e-05     -302.898 
         100         0.48  -0.00106323 -0.000163142     -302.898 
         100     0.653331  -0.00113132 -0.000245604     -302.898 
         100     0.853332  -0.00135371 -0.000332781     -302.898 
         100         1.08  -0.00136284  -0.00040044     -302.898 
         100      1.33333 -0.000987528 -0.000429184     -302.898 
         100      1.61333 -0.000658885 -0.000434166     -302.898 
         100         1.92 -0.000473739 -0.000428207     -302.898 
         100      2.25333 -0.000336759 -0.000408678     -302.897 
         100      2.61333 -0.000231361 -0.000377421     -302.897 
         100            3 -0.000178091  -0.00033778     -302.897 
         150            0           -0           -0     -286.969 
         150     0.013333  0.000135324 -1.22336e-07     -286.969 
         150     0.053333   0.00167673 -2.50213e-07     -286.969 
         150         0.12   0.00327253  8.66929e-06     -286.969 
         150     0.213332   0.00411039  5.06843e-05     -286.969 
         150     0.333332   0.00405614  0.000148128     -286.969 
         150         0.48   0.00362511  0.000301838     -286.969 
         150     0.653331   0.00326721  0.000492688     -286.969 
         150     0.853332   0.00293983  0.000690847     -286.969 
         150         1.08   0.00238337  0.000870583     -286.969 
         150      1.33333   0.00163191   0.00101928     -286.969 
         150      1.61333  0.000861558   0.00113498     -286.969 
         150         1.92  0.000112923   0.00120983     -286.969 
         150      2.25333 -0.000565703   0.00123265     -286.969 
         150      2.61333  -0.00109913   0.00120669      -286.97 
         150            3  -0.00142081   0.00113852      -286.97 
         200            0           -0           -0     -271.049 
         200     0.013333  -0.00019269   1.2838e-07     -271.049 
         200     0.053333  0.000504892   2.2968e-06     -271.049 
         200         0.12    0.0011747  1.28021e-05     -271.049 
         200     0.213332   0.00149457  4.18103e-05     -271.049 
         200     0.333332   0.00141863  9.78593e-05     -271.049 
         200         0.48   0.00115433  0.000182484     -271.049 
         200     0.653331  0.000924745  0.000291083     -271.049 
         200     0.853332  0.000815166  0.000416657     -271.049 
         200         1.08  0.000761413  0.000550429     -271.049 
         200      1.33333    0.0006228   0.00067833     -271.049 
         200      1.61333  0.000363809  0.000786751     -271.049 
         200         1.92  5.71128e-05  0.000867375     -271.049 
         200      2.25333 -0.000241336  0.000912688     -271.049 
         200      2.61333 -0.000493009  0.000920709     -271.049 
         200            3 -0.000674236  0.000893571     -271.049 
         250            0           -0           -0     -255.124 
         250     0.013333 -0.000417125  1.07618e-07     -255.124 
         250     0.053333 -0.000280618  1.69962e-06     -255.124 
         250         0.12  -0.00021363  7.96084e-06     -255.124 
         250     0.213332 -0.000212388  2.11841e-05     -255.124 
         250     0.333332  -0.00019411  3.99139e-05     -255.124 
         250         0.48 -9.57614e-05  6.08932e-05     -255.124 
         250     0.653331  7.34851e-05  8.27993e-05     -255.124 
         250     0.853332  0.000251499  0.000104224     -255.124 
         250         1.08  0.000312837  0.000118997     -255.124 
         250      1.33333  0.000206438  0.000121377     -255.124 
         250      1.61333   5.6284e-05  0.000114289     -255.124 
         250         1.92 -8.59316e-05  0.000101678     -255.124 
         250      2.25333 -0.000228692   8.4058e-05     -255.124 
         250      2.61333  -0.00035987  6.30882e-05     -255.124 
         250            3 -0.000461956  4.04771e-05     -255.124 
         300            0            0            0     -239.197 
         300     0.013333 -0.000874777  2.40905e-07     -239.197 
         300     0.053333  -0.00191619  2.68323e-06     -239.197 
         300         0.12  -0.00319364  6.11369e-06     -239.197 
         300     0.213332  -0.00408288 -1.56076e-06     -239.197 
         300     0.333332  -0.00430148 -3.68072e-05     -239.197 
         300         0.48  -0.00408085 -0.000105908     -239.197 
         300     0.653331  -0.00378936 -0.000200566     -239.197 
         300     0.853332  -0.00351451 -0.000303195     -239.197 
         300         1.08  -0.00308975 -0.000396034     -239.197 
         300      1.33333  -0.00249495 -0.000472264     -239.197 
         300      1.61333  -0.00189949 -0.000536535     -239.197 
         300         1.92  -0.00131548 -0.000588427     -239.197 
         300      2.25333 -0.000736098 -0.000621028     -239.197 
         300      2.61333 -0.000208599 -0.000632087     -239.197 
         300            3   0.00019896 -0.000621249     -239.197 
         350            0           -0           -0     -223.266 
         350     0.013333  -0.00054979  -4.2608e-07     -223.266 
         350     0.053333 -0.000573165 -6.79681e-06     -223.266 
         350         0.12 -0.000239769  -3.2899e-05     -223.266 
         350     0.213332  0.000559951 -9.27635e-05     -223.266 
         350     0.333332   0.00145647 -0.000187353     -223.266 
         350         0.48   0.00198198 -0.000302467     -223.266 
         350     0.653331   0.00200327 -0.000421058     -223.266 
         350     0.853332    0.0017249 -0.000530895     -223.266 
         350         1.08    0.0014526 -0.000621406     -223.266 
         350      1.33333    0.0012957 -0.000686598     -223.266 
         350      1.61333   0.00109106 -0.000730381     -223.266 
         350         1.92  0.000772041 -0.000755371     -223.266 
         350      2.25333  0.000396295 -0.000757546     -223.266 
         350      2.61333  1.34172e-05 -0.000735119     -223.266 
         350            3 -0.000335016 -0.000689309     -223.266 
         400            0 -9.19391e-19  6.49703e-27     -207.335 
         400     0.013333  -0.00154162  2.26693e-08     -207.335 
         400     0.053333  -0.00424326 -1.42898e-06     -207.335 
         400         0.12  -0.00733261 -1.77455e-05     -207.335 
         400     0.213332  -0.00937807 -8.10745e-05     -207.335 
         400     0.333332  -0.00988205  -0.00022422     -207.335 
         400         0.48  -0.00945924 -0.000456312     -207.335 
         400     0.653331  -0.00899165 -0.000761373     -207.335 
         400     0.853332  -0.00878974  -0.00110843     -207.335 
         400         1.08  -0.00841629  -0.00145465     -207.335 
         400      1.33333  -0.00737958  -0.00176093     -207.335 
         400      1.61333  -0.00591146  -0.00201699     -207.335 
         400         1.92   -0.0043869  -0.00222389     -207.335 
         400      2.25333  -0.00281416  -0.00236678     -207.335 
         400      2.61333  -0.00125952  -0.00243252     -207.335 
         400            3  0.000108296  -0.00241527     -207.335 
         450            0            0            0     -191.398 
         450     0.013333 -0.000754896 -3.16689e-07     -191.398 
         450     0.053333  -0.00132093  -5.4762e-06     -191.398 
         450         0.12  -0.00162453 -2.93158e-05     -191.398 
         450     0.213332  -0.00119364 -9.16407e-05     -191.398 
         450     0.333332 -0.000170747 -0.000204206     -191.398 
         450         0.48  0.000861297 -0.000360594     -191.398 
         450     0.653331    0.0014525 -0.000542973     -191.398 
         450     0.853332   0.00157798 -0.000733103     -191.398 
         450         1.08   0.00152328 -0.000913581     -191.398 
         450      1.33333   0.00151884  -0.00107148     -191.398 
         450      1.61333   0.00145329  -0.00120692     -191.398 
         450         1.92   0.00122764   -0.0013212     -191.398 
         450      2.25333  0.000912803  -0.00140456     -191.398 
         450      2.61333   0.00055701  -0.00144847     -191.398 
         450            3  0.000187924  -0.00144836     -191.398 
         500            0            0            0     -175.463 
         500     0.013333 -0.000130038  7.80171e-07     -175.463 
         500     0.053333  0.000556503  1.19157e-05     -175.463 
         500         0.12  0.000794554  5.52274e-05     -175.463 
         500     0.213332  0.000213665  0.000152366     -175.463 
         500     0.333332 -0.000904527  0.000310719     -175.463 
         500         0.48  -0.00198146    0.0005218     -175.463 
         500     0.653331  -0.00263344  0.000772762     -175.463 
         500     0.853332  -0.00275337   0.00105612     -175.463 
         500         1.08  -0.00239746    0.0013671     -175.463 
         500      1.33333  -0.00182175   0.00169146     -175.463 
         500      1.61333  -0.00137279   0.00200254     -175.463 
         500         1.92  -0.00108454   0.00227596     -175.463 
         500      2.25333 -0.000819061   0.00249506     -175.463 
         500      2.61333 -0.000544593   0.00264344     -175.463 
         500            3   -0.0003029   0.00270859     -175.463 
         550            0            0            0     -159.524 
         550     0.013333 -0.000118228 -5.23735e-07     -159.524 
         550     0.053333  0.000942831 -7.18124e-06     -159.524 
         550         0.12   0.00241153 -2.76828e-05     -159.524 
         550     0.213332    0.0037181 -5.81606e-05     -159.524 
         550     0.333332   0.00429904 -8.07614e-05     -159.524 
         550         0.48   0.00410434 -7.90776e-05     -159.524 
         550     0.653331   0.00350573 -5.33928e-05     -159.524 
         550     0.853332   0.00279411 -1.86011e-05     -159.524 
         550         1.08   0.00201831  1.09035e-05     -159.524 
         550      1.33333   0.00127835  3.56112e-05     -159.524 
         550      1.61333  0.000734518  6.54424e-05     -159.524 
         550         1.92  0.000299342   0.00010228     -159.524 
         550      2.25333 -0.000130271  0.000141294     -159.524 
         550      2.61333 -0.000555796  0.000178738     -159.524 
         550            3 -0.000927967  0.000212414     -159.525 
         600            0            0            0     -143.588 
         600     0.013333  -0.00139786 -9.80237e-08     -143.588 
         600     0.053333  -0.00372598 -2.77059e-06     -143.588 
         600         0.12  -0.00639158 -2.09189e-05     -143.588 
         600     0.213332  -0.00817144  -8.1454e-05     -143.588 
         600     0.333332  -0.00862844 -0.000210456     -143.588 
         600         0.48  -0.00827598 -0.000414403     -143.588 
         600     0.653331  -0.00790392 -0.000680226     -143.588 
         600     0.853332  -0.00788082 -0.000985657     -143.588 
         600         1.08  -0.00791132  -0.00129896     -143.588 
         600      1.33333  -0.00738638  -0.00158331     -143.588 
         600      1.61333  -0.00624657  -0.00182114     -143.588 
         600         1.92  -0.00499232  -0.00201879     -143.588 
         600      2.25333  -0.00370969  -0.00217268     -143.588 
         600      2.61333  -0.00238585  -0.00227096     -143.588 
         600            3  -0.00108522  -0.00230287     -143.588 
         650            0            0            0     -127.645 
         650     0.013333  -0.00100381  8.15837e-07     -127.645 
         650     0.053333  -0.00258142  1.14146e-05     -127.645 
         650         0.12  -0.00499995  4.56419e-05     -127.645 
         650     0.213332  -0.00739828  0.000101713     -127.645 
         650     0.333332  -0.00880665  0.000155278     -127.645 
         650         0.48  -0.00895105  0.000179067     -127.645 
         650     0.653331  -0.00830153  0.000167357     -127.645 
         650     0.853332  -0.00734363  0.000138295     -127.645 
         650         1.08  -0.00617311  0.000115332     -127.645 
         650      1.33333  -0.00490317  0.000101585     -127.645 
         650      1.61333   -0.0038738  7.87596e-05     -127.645 
         650         1.92  -0.00305077  3.81482e-05     -127.645 
         650      2.25333   -0.0022011 -1.26819e-05     -127.645 
         650      2.61333  -0.00128793  -6.7344e-05     -127.645 
         650            3 -0.000407691 -0.000122916     -127.645 
         700            0           -0           -0     -111.691 
         700     0.013333  0.000619004 -1.41187e-06     -111.691 
         700     0.053333   0.00389846 -1.97241e-05     -111.691 
         700         0.12    0.0087951 -7.91971e-05     -111.691 
         700     0.213332    0.0138586 -0.000179738     -111.691 
         700     0.333332    0.0174044 -0.000286086     -111.691 
         700         0.48    0.0188121 -0.000355345     -111.691 
         700     0.653331    0.0187022  -0.00037108     -111.691 
         700     0.853332    0.0179035  -0.00035082     -111.691 
         700         1.08    0.0165841 -0.000331914     -111.691 
         700      1.33333    0.0145337 -0.000343189     -111.691 
         700      1.61333    0.0120024  -0.00038052     -111.691 
         700         1.92   0.00950682 -0.000417606     -111.691 
         700      2.25333   0.00695404 -0.000443676     -111.691 
         700      2.61333   0.00425993 -0.000458648     -111.692 
         700            3   0.00154973 -0.000462881     -111.692 
         750            0            0            0     -95.7495 
         750     0.013333 -9.22595e-05  1.60117e-06     -95.7495 
         750     0.053333   0.00040998  2.43211e-05     -95.7495 
         750         0.12 -0.000320317  0.000111977     -95.7495 
         750     0.213332  -0.00280356  0.000306798     -95.7495 
         750     0.333332  -0.00621008  0.000620405     -95.7495 
         750         0.48  -0.00915453   0.00102948     -95.7495 
         750     0.653331   -0.0108266   0.00149987     -95.7495 
         750     0.853332   -0.0111894   0.00201116     -95.7495 
         750         1.08   -0.0105039   0.00255837     -95.7495 
         750      1.33333  -0.00913102   0.00313243     -95.7495 
         750      1.61333  -0.00759059   0.00370487     -95.7495 
         750         1.92  -0.00624957   0.00423711     -95.7495 
         750      2.25333  -0.00493388   0.00469737     -95.7495 
         750      2.61333   -0.0035225   0.00505881     -95.7494 
         750            3  -0.00207088   0.00529589     -95.7493 
         800            0            0            0     -79.7994 
         800     0.013333  -0.00202318  1.12618e-07     -79.7994 
         800     0.053333  -0.00607197  4.61039e-08     -79.7994 
         800         0.12   -0.0110499 -1.09677e-05     -79.7994 
         800     0.213332     -0.01492 -6.59026e-05     -79.7994 
         800     0.333332   -0.0164964 -0.000208412     -79.7994 
         800         0.48   -0.0161126 -0.000464193     -79.7994 
         800     0.653331   -0.0149873 -0.000826824     -79.7994 
         800     0.853332    -0.014072  -0.00126786     -79.7994 
         800         1.08   -0.0134673  -0.00174902     -79.7994 
         800      1.33333   -0.0126362  -0.00222936     -79.7994 
         800      1.61333   -0.0111831  -0.00267692     -79.7994 
         800         1.92  -0.00933007   -0.0030804     -79.7993 
         800      2.25333  -0.00732214   -0.0034317     -79.7993 
         800      2.61333  -0.00521435  -0.00371249     -79.7992 
         800            3  -0.00303365  -0.00390196      -79.799 
         850            0            0            0     -63.8383 
         850     0.013333 -0.000263613 -1.16733e-06     -63.8383 
         850     0.053333  0.000662562 -1.70889e-05     -63.8383 
         850         0.12   0.00262415 -7.44143e-05     -63.8383 
         850     0.213332   0.00537945 -0.000190525     -63.8383 
         850     0.333332   0.00803068 -0.000358379     -63.8383 
         850         0.48   0.00980342 -0.000554871     -63.8383 
         850     0.653331    0.0105708 -0.000762357     -63.8383 
         850     0.853332    0.0105796 -0.000980992     -63.8383 
         850         1.08   0.00994111  -0.00122452     -63.8383 
         850      1.33333   0.00865624  -0.00150245     -63.8383 
         850      1.61333   0.00703104  -0.00180223     -63.8383 
         850         1.92   0.00555902  -0.00209287     -63.8383 
         850      2.25333   0.00418091  -0.00235218     -63.8384 
         850      2.61333   0.00275551  -0.00256625     -63.8384 
         850            3   0.00127547  -0.00272305     -63.8385 
         900            0 -4.11262e-19 -3.07895e-26     -47.8838 
         900     0.013333 -0.000134308  2.45928e-07     -47.8838 
         900     0.053333  0.000705284   3.9258e-06     -47.8838 
         900         0.12   0.00152695  1.92972e-05     -47.8838 
         900     0.213332     0.001961  5.66534e-05     -47.8838 
         900     0.333332   0.00194931  0.000122477     -47.8838 
         900         0.48   0.00170431  0.000216447     -47.8838 
         900     0.653331    0.0014715  0.000334536     -47.8838 
         900     0.853332   0.00139755  0.000473698     -47.8838 
         900         1.08   0.00152442  0.000631812     -47.8838 
         900      1.33333   0.00174134  0.000801831     -47.8838 
         900      1.61333   0.00179524  0.000968449     -47.8838 
         900         1.92   0.00156277   0.00111801     -47.8838 
         900      2.25333   0.00121623   0.00124488     -47.8838 
         900      2.61333  0.000849934   0.00134587     -47.8838 
         900            3  0.000460823   0.00141586     -47.8838 
         950            0            0            0     -31.9259 
         950     0.013333 -0.000289361  1.57137e-08     -31.9259 
         950     0.053333  0.000201664  4.48283e-07     -31.9259 
         950         0.12  0.000715085  3.54569e-06     -31.9259 
         950     0.213332   0.00100356  1.47839e-05     -31.9259 
         950     0.333332    0.0009379  4.10914e-05     -31.9259 
         950         0.48  0.000614467  8.61203e-05     -31.9259 
         950     0.653331  0.000249414  0.000147307     -31.9259 
         950     0.853332 -1.74799e-05  0.000217648     -31.9259 
         950         1.08 -0.000201828  0.000289648     -31.9259 
         950      1.33333 -0.000365102  0.000359342     -31.9259 
         950      1.61333 -0.000484764  0.000427942     -31.9259 
         950         1.92  -0.00052555  0.000496583     -31.9259 
         950      2.25333 -0.000543354  0.000562339     -31.9259 
         950      2.61333 -0.000567719  0.000620183     -31.9259 
         950            3 -0.000590846  0.000665727     -31.9259 
        1000            0            0            0     -15.9667 
        1000     0.013333 -0.000652298  4.87535e-07     -15.9667 
        1000     0.053333  -0.00125692  7.14694e-06     -15.9667 
        1000         0.12  -0.00242802  3.07823e-05     -15.9667 
        1000     0.213332  -0.00391594  7.71205e-05     -15.9667 
        1000     0.333332  -0.00521788   0.00014011     -15.9667 
        1000         0.48  -0.00596413  0.000206882     -15.9667 
        1000     0.653331  -0.00616026   0.00026927     -15.9668 
        1000     0.853332  -0.00599638   0.00032976     -15.9668 
        1000         1.08  -0.00556145  0.000397667     -15.9668 
        1000      1.33333  -0.00487658  0.000478414     -15.9668 
        1000      1.61333  -0.00410955  0.000565623     -15.9668 
        1000         1.92  -0.00346554  0.000646196     -15.9667 
        1000      2.25333  -0.00286763  0.000715965     -15.9667 
        1000      2.61333  -0.00222871  0.000772303     -15.9667 
        1000            3  -0.00154282  0.000812482     -15.9667 
