Variables = x, y, u, v, p

Zone, I=416, F=POINT
         -50            0            0            0      -12.639 
         -50     0.013333 -0.000200261 -3.61012e-08      -12.639 
         -50     0.053333 -0.000169405 -1.96374e-07      -12.639 
         -50         0.12 -0.000150847 -4.40323e-07      -12.639 
         -50     0.213332 -0.000138777  -5.4042e-07      -12.639 
         -50     0.333332  -0.00013366 -4.21011e-07      -12.639 
         -50         0.48 -0.000131583 -4.30171e-07      -12.639 
         -50     0.653331 -0.000131965 -2.03277e-07     -12.6389 
         -50     0.853332 -0.000136992  1.91898e-07     -12.6389 
         -50         1.08 -0.000147293  9.37052e-08     -12.6388 
         -50      1.33333 -0.000161182 -5.44286e-07     -12.6387 
         -50      1.61333 -0.000177356 -1.18027e-06     -12.6385 
         -50         1.92 -0.000188779 -2.08672e-06     -12.6383 
         -50      2.25333 -0.000192402 -3.44987e-06     -12.6381 
         -50      2.61333 -0.000191834 -4.04044e-06     -12.6377 
         -50            3 -0.000191588 -3.48674e-06     -12.6373 
         -25            0           -0           -0     -12.1349 
         -25     0.013333  -0.00014863 -1.43232e-08     -12.1349 
         -25     0.053333 -0.000130406 -8.06777e-08     -12.1349 
         -25         0.12 -0.000121349 -2.08074e-07     -12.1349 
         -25     0.213332 -0.000115257 -3.51491e-07     -12.1349 
         -25     0.333332 -0.000112809 -3.90863e-07     -12.1349 
         -25         0.48 -0.000112032 -2.54255e-07     -12.1349 
         -25     0.653331 -0.000111752 -4.59774e-08     -12.1349 
         -25     0.853332 -0.000111803  4.04185e-07     -12.1349 
         -25         1.08 -0.000113317  9.12297e-07     -12.1348 
         -25      1.33333 -0.000116304  1.37466e-06     -12.1348 
         -25      1.61333 -0.000119335  1.47816e-06     -12.1347 
         -25         1.92 -0.000123663  1.78837e-06     -12.1347 
         -25      2.25333 -0.000132068  4.70405e-07     -12.1346 
         -25      2.61333 -0.000144216 -2.19901e-06     -12.1344 
         -25            3 -0.000153386 -3.57567e-06     -12.1343 
           0            0            0            0      -11.716 
           0     0.013333 -0.000414538  0.000248819     -11.7173 
           0     0.053333 -0.000237167  0.000126384     -11.7181 
           0         0.12 -0.000176974  8.36017e-05      -11.719 
           0     0.213332  -0.00014984  6.39987e-05       -11.72 
           0     0.333332 -0.000138405  5.27679e-05      -11.721 
           0         0.48 -0.000131074  4.45223e-05     -11.7219 
           0     0.653331 -0.000125232  3.87955e-05     -11.7229 
           0     0.853332  -0.00011994  3.47454e-05     -11.7238 
           0         1.08  -0.00011697  3.17211e-05     -11.7247 
           0      1.33333 -0.000116595  2.92409e-05     -11.7256 
           0      1.61333 -0.000116926  2.70523e-05     -11.7264 
           0         1.92 -0.000116078  2.49851e-05     -11.7272 
           0      2.25333 -0.000116993  2.29033e-05     -11.7279 
           0      2.61333 -0.000118873  2.08148e-05     -11.7286 
           0            3 -0.000116639  1.99937e-05     -11.7292 
          20            0 -0.000240358   0.00012797     -11.4686 
          20     0.013333 -0.000235901  0.000128044     -11.4686 
          20     0.053333 -0.000222784   0.00012803     -11.4686 
          20         0.12 -0.000202394  0.000127175     -11.4686 
          20     0.213332 -0.000179077   0.00012415     -11.4686 
          20     0.333332 -0.000161633  0.000117088     -11.4685 
          20         0.48 -0.000158742  0.000104358     -11.4685 
          20     0.653331 -0.000163296  8.60019e-05     -11.4685 
          20     0.853332 -0.000152319  6.43238e-05     -11.4684 
          20         1.08 -0.000117448    4.195e-05     -11.4684 
          20      1.33333 -7.17247e-05  2.03075e-05     -11.4683 
          20      1.61333 -2.54268e-05  5.50964e-07     -11.4682 
          20         1.92  1.16136e-05 -1.61709e-05     -11.4681 
          20      2.25333  2.95146e-05 -2.91546e-05      -11.468 
          20      2.61333    3.352e-05 -3.73673e-05     -11.4679 
          20            3  2.72547e-05 -4.38522e-05     -11.4677 
          40            0            0            0     -11.2087 
          40     0.013333 -0.000174276  3.96075e-08     -11.2087 
          40     0.053333 -0.000332329  5.26233e-07     -11.2087 
          40         0.12  -0.00054216  1.60777e-06     -11.2087 
          40     0.213332 -0.000715245  1.87072e-06     -11.2086 
          40     0.333332 -0.000807171 -8.80912e-07     -11.2086 
          40         0.48 -0.000828516 -7.37968e-06     -11.2086 
          40     0.653331 -0.000817379 -1.71542e-05     -11.2086 
          40     0.853332 -0.000799113 -3.04479e-05     -11.2086 
          40         1.08 -0.000731358 -4.56805e-05     -11.2086 
          40      1.33333 -0.000587473 -5.86253e-05     -11.2086 
          40      1.61333 -0.000404459 -6.73974e-05     -11.2086 
          40         1.92 -0.000220164 -7.15483e-05     -11.2085 
          40      2.25333 -6.51713e-05 -7.07484e-05     -11.2085 
          40      2.61333  4.10552e-05 -6.61903e-05     -11.2084 
          40            3  9.30251e-05 -5.97848e-05     -11.2083 
          60            0            0            0     -10.9542 
          60     0.013333 -0.000198367  1.62962e-07     -10.9542 
          60     0.053333 -0.000451223  2.09279e-06     -10.9542 
          60         0.12   -0.0007856  7.04382e-06     -10.9542 
          60     0.213332  -0.00102675   1.1646e-05     -10.9542 
          60     0.333332  -0.00109227  9.83642e-06     -10.9542 
          60         0.48  -0.00105768 -5.56159e-07     -10.9542 
          60     0.653331  -0.00100255 -1.45139e-05     -10.9542 
          60     0.853332 -0.000894514 -2.31585e-05     -10.9542 
          60         1.08 -0.000722726 -2.51257e-05     -10.9542 
          60      1.33333 -0.000533342 -2.52249e-05     -10.9542 
          60      1.61333 -0.000334522 -2.63612e-05     -10.9542 
          60         1.92 -0.000139364 -2.83007e-05     -10.9542 
          60      2.25333  2.42892e-05 -2.98856e-05     -10.9541 
          60      2.61333  0.000132127 -3.18353e-05     -10.9541 
          60            3  0.000176143 -3.36629e-05      -10.954 
          80            0           -0           -0      -10.709 
          80     0.013333 -0.000125807   1.0252e-07      -10.709 
          80     0.053333 -0.000205077  1.45417e-06      -10.709 
          80         0.12 -0.000375119  6.04665e-06      -10.709 
          80     0.213332 -0.000598881  1.48597e-05      -10.709 
          80     0.333332 -0.000815951  2.71366e-05      -10.709 
          80         0.48 -0.000988995  4.11136e-05      -10.709 
          80     0.653331  -0.00110011  5.63293e-05      -10.709 
          80     0.853332  -0.00107786  7.72203e-05      -10.709 
          80         1.08 -0.000859916   0.00010884      -10.709 
          80      1.33333 -0.000596427  0.000145408      -10.709 
          80      1.61333 -0.000409307  0.000175988      -10.709 
          80         1.92 -0.000235973  0.000197547      -10.709 
          80      2.25333 -8.01352e-05  0.000209104     -10.7089 
          80      2.61333  3.52092e-05  0.000210224     -10.7089 
          80            3  9.95754e-05  0.000203085     -10.7089 
         100            0           -0           -0     -10.4683 
         100     0.013333  4.17215e-05 -8.56043e-10     -10.4683 
         100     0.053333  0.000401532  3.71132e-07     -10.4683 
         100         0.12  0.000761593  4.01191e-06     -10.4683 
         100     0.213332  0.000939336  1.72579e-05     -10.4683 
         100     0.333332  0.000922889  4.54629e-05     -10.4683 
         100         0.48  0.000846255  8.83143e-05     -10.4683 
         100     0.653331   0.00079702  0.000139961     -10.4683 
         100     0.853332  0.000720197  0.000191275     -10.4683 
         100         1.08  0.000563312  0.000236673     -10.4683 
         100      1.33333  0.000382727   0.00027508     -10.4683 
         100      1.61333  0.000200159  0.000304588     -10.4683 
         100         1.92  2.18308e-05  0.000322203     -10.4683 
         100      2.25333 -0.000135782  0.000325287     -10.4683 
         100      2.61333 -0.000253729  0.000315449     -10.4684 
         100            3 -0.000318128  0.000295274     -10.4684 
         150            0            0            0     -9.87971 
         150     0.013333  -0.00014448  2.76254e-08     -9.87971 
         150     0.053333 -0.000256532  3.05364e-07     -9.87971 
         150         0.12 -0.000401038  7.02301e-07     -9.87972 
         150     0.213332 -0.000511738 -1.31514e-08     -9.87972 
         150     0.333332 -0.000563312 -3.39824e-06     -9.87972 
         150         0.48 -0.000575547 -1.00483e-05     -9.87972 
         150     0.653331 -0.000576279 -1.93271e-05     -9.87972 
         150     0.853332 -0.000563067 -2.93813e-05     -9.87971 
         150         1.08 -0.000506446 -3.76824e-05     -9.87971 
         150      1.33333 -0.000408933 -4.28253e-05     -9.87971 
         150      1.61333 -0.000310113 -4.59486e-05     -9.87971 
         150         1.92 -0.000210878 -4.73159e-05      -9.8797 
         150      2.25333 -0.000115296  -4.6277e-05     -9.87969 
         150      2.61333 -3.53375e-05 -4.32507e-05     -9.87968 
         150            3  1.82893e-05 -3.89846e-05     -9.87967 
         200            0           -0           -0     -9.29824 
         200     0.013333 -6.70505e-05 -8.41375e-08     -9.29824 
         200     0.053333  4.10573e-05 -1.16435e-06     -9.29824 
         200         0.12  0.000201635 -4.62434e-06     -9.29824 
         200     0.213332  0.000369037 -1.04727e-05     -9.29824 
         200     0.333332  0.000487584 -1.71033e-05     -9.29824 
         200         0.48  0.000545445 -2.29935e-05     -9.29824 
         200     0.653331  0.000557597 -2.82061e-05     -9.29824 
         200     0.853332    0.0005216  -3.4454e-05     -9.29824 
         200         1.08  0.000431028 -4.27835e-05     -9.29824 
         200      1.33333  0.000318203 -5.17847e-05     -9.29824 
         200      1.61333  0.000207226 -5.93461e-05     -9.29824 
         200         1.92  9.14364e-05 -6.47888e-05     -9.29825 
         200      2.25333 -2.25222e-05 -6.79002e-05     -9.29825 
         200      2.61333 -0.000119791 -6.81093e-05     -9.29826 
         200            3 -0.000188179 -6.58543e-05     -9.29827 
         250            0           -0           -0     -8.72094 
         250     0.013333 -0.000275951  3.00841e-09     -8.72094 
         250     0.053333 -0.000710875  -3.3456e-07     -8.72094 
         250         0.12  -0.00117623  -3.9331e-06     -8.72094 
         250     0.213332  -0.00141897 -1.76415e-05     -8.72094 
         250     0.333332  -0.00138556  -4.8004e-05     -8.72094 
         250         0.48  -0.00122447 -9.58159e-05     -8.72094 
         250     0.653331  -0.00109217 -0.000156168     -8.72094 
         250     0.853332  -0.00100781 -0.000221413     -8.72094 
         250         1.08 -0.000893078 -0.000284218     -8.72094 
         250      1.33333 -0.000720616 -0.000340169     -8.72093 
         250      1.61333 -0.000532348  -0.00038789     -8.72093 
         250         1.92 -0.000342097 -0.000424565     -8.72092 
         250      2.25333 -0.000156561 -0.000446044      -8.7209 
         250      2.61333  6.70635e-06 -0.000450853     -8.72088 
         250            3  0.000126817 -0.000439315     -8.72085 
         300            0           -0           -0     -8.14483 
         300     0.013333 -0.000238818 -5.02165e-08     -8.14483 
         300     0.053333 -0.000572375 -1.00795e-06     -8.14483 
         300         0.12 -0.000915864  -6.0912e-06     -8.14483 
         300     0.213332  -0.00109009 -2.05399e-05     -8.14483 
         300     0.333332  -0.00108113 -4.80116e-05     -8.14483 
         300         0.48  -0.00100456 -8.81223e-05     -8.14483 
         300     0.653331 -0.000969693 -0.000137941     -8.14483 
         300     0.853332  -0.00098912 -0.000193014     -8.14483 
         300         1.08  -0.00096901 -0.000246297     -8.14483 
         300      1.33333 -0.000833383 -0.000290856     -8.14483 
         300      1.61333 -0.000643648 -0.000325438     -8.14483 
         300         1.92 -0.000455913 -0.000350344     -8.14482 
         300      2.25333 -0.000269011 -0.000363092     -8.14481 
         300      2.61333  -9.3324e-05 -0.000362594     -8.14479 
         300            3  4.90301e-05 -0.000349184     -8.14477 
         350            0            0            0     -7.56998 
         350     0.013333  9.75764e-06 -6.45202e-08     -7.56998 
         350     0.053333    0.0003028 -7.43864e-07     -7.56998 
         350         0.12  0.000642663  -1.8429e-06     -7.56998 
         350     0.213332   0.00086572 -1.17944e-07     -7.56998 
         350     0.333332  0.000885126  9.39687e-06     -7.56998 
         350         0.48  0.000763511  2.90438e-05     -7.56998 
         350     0.653331  0.000614751  5.65712e-05     -7.56998 
         350     0.853332  0.000483523  8.71639e-05     -7.56998 
         350         1.08  0.000352952  0.000117031     -7.56998 
         350      1.33333  0.000229214  0.000145498     -7.56998 
         350      1.61333  0.000127987  0.000172926     -7.56998 
         350         1.92  2.92306e-05   0.00019747     -7.56999 
         350      2.25333  -6.9795e-05  0.000216532        -7.57 
         350      2.61333 -0.000160706  0.000228509     -7.57001 
         350            3 -0.000233319  0.000232531     -7.57003 
         400            0            0            0     -6.99761 
         400     0.013333 -0.000159172 -3.10355e-07     -6.99761 
         400     0.053333 -0.000221565  -4.6648e-06     -6.99761 
         400         0.12 -9.27345e-05 -2.10801e-05     -6.99761 
         400     0.213332  0.000287501 -5.63042e-05     -6.99761 
         400     0.333332  0.000757925 -0.000110761     -6.99761 
         400         0.48   0.00111901 -0.000179574     -6.99761 
         400     0.653331   0.00128365  -0.00025807     -6.99761 
         400     0.853332    0.0012502 -0.000344889     -6.99761 
         400         1.08   0.00105398 -0.000439049     -6.99761 
         400      1.33333  0.000801796 -0.000534681     -6.99761 
         400      1.61333  0.000595714 -0.000622356     -6.99761 
         400         1.92  0.000409109 -0.000695553     -6.99762 
         400      2.25333  0.000214231  -0.00074916     -6.99763 
         400      2.61333  2.02093e-05  -0.00077875     -6.99764 
         400            3 -0.000148599 -0.000781974     -6.99765 
         450            0            0            0     -6.42844 
         450     0.013333 -0.000137436  3.59637e-07     -6.42844 
         450     0.053333 -0.000336579  5.32017e-06     -6.42844 
         450         0.12 -0.000833803  2.34263e-05     -6.42844 
         450     0.213332  -0.00154433  6.03511e-05     -6.42844 
         450     0.333332  -0.00218902  0.000113321     -6.42844 
         450         0.48  -0.00254356  0.000173875     -6.42844 
         450     0.653331  -0.00259202  0.000235626     -6.42844 
         450     0.853332  -0.00242745  0.000297499     -6.42844 
         450         1.08  -0.00213748  0.000359963     -6.42844 
         450      1.33333  -0.00180086  0.000420703     -6.42844 
         450      1.61333  -0.00146543  0.000475392     -6.42843 
         450         1.92  -0.00111939  0.000520209     -6.42842 
         450      2.25333 -0.000750247  0.000551814      -6.4284 
         450      2.61333 -0.000375479  0.000567201     -6.42838 
         450            3 -3.40037e-05  0.000564697     -6.42835 
         500            0           -0           -0     -5.85869 
         500     0.013333  0.000270449 -3.78602e-07     -5.85869 
         500     0.053333   0.00132696 -5.07132e-06     -5.85869 
         500         0.12     0.002784  -1.8831e-05     -5.85869 
         500     0.213332   0.00412327  -3.7469e-05     -5.85869 
         500     0.333332   0.00489514 -4.75162e-05     -5.85869 
         500         0.48    0.0050666 -3.73261e-05     -5.85869 
         500     0.653331   0.00491429 -6.27926e-06     -5.85869 
         500     0.853332   0.00464612  3.60259e-05     -5.85869 
         500         1.08   0.00423023  7.61487e-05     -5.85869 
         500      1.33333   0.00360173   0.00010608     -5.85869 
         500      1.61333   0.00287092  0.000128264      -5.8587 
         500         1.92   0.00213615  0.000147738     -5.85873 
         500      2.25333   0.00136993  0.000163766     -5.85876 
         500      2.61333  0.000587573  0.000174759     -5.85881 
         500            3 -0.000138335  0.000179798     -5.85888 
         550            0            0            0     -5.29612 
         550     0.013333 -0.000485893 -3.87135e-08     -5.29612 
         550     0.053333  -0.00145544 -1.16813e-06     -5.29612 
         550         0.12  -0.00252914 -9.10019e-06     -5.29612 
         550     0.213332   -0.0031811  -3.6028e-05     -5.29612 
         550     0.333332  -0.00324201 -9.39567e-05     -5.29613 
         550         0.48  -0.00296316 -0.000185644     -5.29613 
         550     0.653331  -0.00269788  -0.00030402     -5.29613 
         550     0.853332  -0.00258987 -0.000437658     -5.29613 
         550         1.08  -0.00251775  -0.00057316     -5.29613 
         550      1.33333  -0.00227836 -0.000697493     -5.29613 
         550      1.61333  -0.00186188 -0.000804156     -5.29612 
         550         1.92  -0.00141794 -0.000893346     -5.29611 
         550      2.25333 -0.000970298 -0.000961534     -5.29608 
         550      2.61333 -0.000520132   -0.0010033     -5.29605 
         550            3 -9.54077e-05  -0.00101439     -5.29601 
         600            0            0            0     -4.73349 
         600     0.013333  0.000118904  5.05657e-07     -4.73349 
         600     0.053333  0.000527715   7.8589e-06     -4.73349 
         600         0.12  0.000602632  3.71669e-05     -4.73348 
         600     0.213332  8.50977e-05  0.000104101     -4.73348 
         600     0.333332 -0.000777792  0.000213394     -4.73348 
         600         0.48  -0.00150827  0.000356404     -4.73348 
         600     0.653331  -0.00182399  0.000520791     -4.73348 
         600     0.853332  -0.00172082  0.000699018     -4.73348 
         600         1.08  -0.00135725  0.000885242     -4.73348 
         600      1.33333 -0.000994147   0.00106769     -4.73348 
         600      1.61333 -0.000801177   0.00123231     -4.73348 
         600         1.92 -0.000675824   0.00137199     -4.73348 
         600      2.25333 -0.000528559    0.0014814     -4.73347 
         600      2.61333 -0.000356015   0.00155282     -4.73346 
         600            3 -0.000188052   0.00157915     -4.73345 
         650            0            0            0     -4.17296 
         650     0.013333 -0.000269425 -6.40421e-07     -4.17296 
         650     0.053333 -0.000510226 -9.74068e-06     -4.17296 
         650         0.12 -0.000317378 -4.48171e-05     -4.17296 
         650     0.213332  0.000521099 -0.000122256     -4.17296 
         650     0.333332   0.00167233 -0.000245364     -4.17296 
         650         0.48   0.00261651 -0.000403815     -4.17296 
         650     0.653331   0.00307923 -0.000584944     -4.17296 
         650     0.853332   0.00306034  -0.00078294     -4.17296 
         650         1.08   0.00266384 -0.000996197     -4.17295 
         650      1.33333   0.00209874  -0.00121651     -4.17296 
         650      1.61333    0.0016252  -0.00142685     -4.17296 
         650         1.92   0.00127364  -0.00161287     -4.17297 
         650      2.25333  0.000920474  -0.00176564     -4.17298 
         650      2.61333  0.000532107  -0.00187583       -4.173 
         650            3  0.000148952  -0.00193435     -4.17303 
         700            0            0            0     -3.61607 
         700     0.013333  0.000234785  3.44606e-07     -3.61607 
         700     0.053333  0.000999199  5.50233e-06     -3.61607 
         700         0.12   0.00163573  2.70739e-05     -3.61607 
         700     0.213332   0.00172555   7.9534e-05     -3.61607 
         700     0.333332   0.00128556  0.000171638     -3.61606 
         700         0.48  0.000674431  0.000301481     -3.61606 
         700     0.653331  0.000236237    0.0004606     -3.61606 
         700     0.853332  0.000104575  0.000640962     -3.61606 
         700         1.08  0.000226023  0.000835901     -3.61606 
         700      1.33333  0.000413793   0.00103553     -3.61606 
         700      1.61333  0.000472576   0.00122618     -3.61606 
         700         1.92  0.000393719   0.00139704     -3.61607 
         700      2.25333  0.000281873   0.00154083     -3.61607 
         700      2.61333  0.000173608   0.00164923     -3.61607 
         700            3   5.9776e-05   0.00171372     -3.61608 
         750            0 -4.92462e-19 -2.87109e-26     -3.06188 
         750     0.013333 -0.000474598 -5.95581e-08     -3.06188 
         750     0.053333  -0.00141786 -1.37107e-06     -3.06188 
         750         0.12  -0.00246995 -9.40114e-06     -3.06188 
         750     0.213332  -0.00311356 -3.54066e-05     -3.06188 
         750     0.333332  -0.00315126 -9.10268e-05     -3.06188 
         750         0.48  -0.00280187 -0.000180003     -3.06188 
         750     0.653331  -0.00243081 -0.000296507     -3.06188 
         750     0.853332  -0.00223547 -0.000430186     -3.06188 
         750         1.08  -0.00216088 -0.000569814     -3.06188 
         750      1.33333  -0.00202299 -0.000704501     -3.06188 
         750      1.61333  -0.00173345 -0.000826597     -3.06187 
         750         1.92  -0.00138186 -0.000934451     -3.06186 
         750      2.25333  -0.00102553  -0.00102524     -3.06185 
         750      2.61333 -0.000666911  -0.00109397     -3.06183 
         750            3 -0.000305309  -0.00113503      -3.0618 
         800            0            0            0     -2.50676 
         800     0.013333   0.00043329 -2.80285e-07     -2.50676 
         800     0.053333   0.00190269 -3.56876e-06     -2.50676 
         800         0.12   0.00384178 -1.17751e-05     -2.50676 
         800     0.213332   0.00553957 -1.72411e-05     -2.50676 
         800     0.333332   0.00642809 -3.37121e-06     -2.50676 
         800         0.48     0.006483  4.35078e-05     -2.50676 
         800     0.653331   0.00611019  0.000124256     -2.50676 
         800     0.853332   0.00568535   0.00022806     -2.50675 
         800         1.08   0.00526334  0.000338767     -2.50675 
         800      1.33333   0.00469182  0.000442371     -2.50675 
         800      1.61333   0.00393919  0.000533605     -2.50676 
         800         1.92   0.00315526   0.00061563     -2.50678 
         800      2.25333   0.00236133  0.000688984     -2.50681 
         800      2.61333   0.00153499   0.00074935     -2.50685 
         800            3    0.0006895   0.00079164     -2.50691 
         850            0           -0           -0     -1.96053 
         850     0.013333  -0.00016317  7.38292e-07     -1.96053 
         850     0.053333 -0.000562791  1.09579e-05     -1.96053 
         850         0.12  -0.00164783  4.86966e-05     -1.96053 
         850     0.213332  -0.00334518  0.000127659     -1.96053 
         850     0.333332  -0.00509289  0.000245792     -1.96053 
         850         0.48  -0.00631141  0.000388127     -1.96053 
         850     0.653331  -0.00682829  0.000540571     -1.96053 
         850     0.853332  -0.00678245   0.00069968     -1.96053 
         850         1.08  -0.00630863  0.000870592     -1.96053 
         850      1.33333  -0.00550385   0.00105557     -1.96053 
         850      1.61333  -0.00458543   0.00124504     -1.96053 
         850         1.92  -0.00376863   0.00142263     -1.96051 
         850      2.25333   -0.0029767   0.00157733     -1.96049 
         850      2.61333  -0.00213167   0.00170141     -1.96045 
         850            3   -0.0012461    0.0017872      -1.9604 
         900            0            0            0      -1.4126 
         900     0.013333 -0.000623072 -2.04759e-07      -1.4126 
         900     0.053333  -0.00192066 -3.60804e-06      -1.4126 
         900         0.12  -0.00332666  -1.9913e-05      -1.4126 
         900     0.213332  -0.00415288 -6.50354e-05      -1.4126 
         900     0.333332  -0.00417091 -0.000153197      -1.4126 
         900         0.48  -0.00368806 -0.000287892     -1.41261 
         900     0.653331  -0.00318694 -0.000461752     -1.41261 
         900     0.853332  -0.00295275 -0.000663569     -1.41261 
         900         1.08  -0.00297226 -0.000881907     -1.41261 
         900      1.33333  -0.00300945  -0.00110319     -1.41261 
         900      1.61333  -0.00282202  -0.00131248      -1.4126 
         900         1.92  -0.00241216   -0.0015014      -1.4126 
         900      2.25333  -0.00193451  -0.00166505     -1.41258 
         900      2.61333   -0.0014461  -0.00179739     -1.41256 
         900            3 -0.000936201  -0.00189013     -1.41253 
         950            0            0            0    -0.865282 
         950     0.013333  0.000326096 -3.35967e-07    -0.865282 
         950     0.053333    0.0015326 -4.54081e-06    -0.865282 
         950         0.12   0.00319528 -1.68962e-05    -0.865282 
         950     0.213332    0.0047313 -3.31344e-05    -0.865282 
         950     0.333332   0.00559565 -3.90633e-05    -0.865281 
         950         0.48   0.00569351 -2.10697e-05    -0.865279 
         950     0.653331   0.00535577  2.28947e-05    -0.865276 
         950     0.853332   0.00492753  8.27855e-05    -0.865274 
         950         1.08   0.00446986  0.000143063    -0.865272 
         950      1.33333   0.00386343  0.000191697    -0.865272 
         950      1.61333   0.00312236  0.000227481    -0.865277 
         950         1.92   0.00243129   0.00025754     -0.86529 
         950      2.25333   0.00179734  0.000286585    -0.865313 
         950      2.61333   0.00116465  0.000312549    -0.865348 
         950            3  0.000511815  0.000332209    -0.865398 
        1000            0 -5.46903e-20 -2.68252e-24    -0.327014 
        1000     0.013333   2.3312e-05  9.40323e-07    -0.327013 
        1000     0.053333  8.81218e-07  1.43951e-05    -0.327013 
        1000         0.12 -0.000930045  6.64584e-05    -0.327013 
        1000     0.213332   -0.0030011  0.000182099    -0.327012 
        1000     0.333332  -0.00555262  0.000366868    -0.327012 
        1000         0.48  -0.00758971  0.000603974    -0.327012 
        1000     0.653331   -0.0085864  0.000870227    -0.327014 
        1000     0.853332  -0.00861399   0.00115263    -0.327015 
        1000         1.08  -0.00795034   0.00145007    -0.327016 
        1000      1.33333  -0.00690162    0.0017594    -0.327015 
        1000      1.61333  -0.00584568    0.0020649    -0.327009 
        1000         1.92  -0.00500787   0.00234695    -0.326998 
        1000      2.25333  -0.00420417   0.00259511    -0.326977 
        1000      2.61333  -0.00330301   0.00279973    -0.326944 
        1000            3  -0.00231363    0.0029488    -0.326897 
