Variables = x, y, u, v, p

Zone, I=416, F=POINT
         -50            0            0            0     -165.957 
         -50     0.013333 -0.000249656 -1.09148e-07     -165.957 
         -50     0.053333 -0.000212892 -5.27976e-07     -165.957 
         -50         0.12 -0.000180908 -1.66139e-06     -165.957 
         -50     0.213332 -0.000151044  -3.5719e-06     -165.957 
         -50     0.333332 -0.000131882 -6.08878e-06     -165.957 
         -50         0.48 -0.000124584 -7.95165e-06     -165.956 
         -50     0.653331 -0.000127904 -1.02962e-05     -165.956 
         -50     0.853332 -0.000141021 -1.32778e-05     -165.955 
         -50         1.08 -0.000160933 -1.55461e-05     -165.954 
         -50      1.33333 -0.000185657  -1.7622e-05     -165.952 
         -50      1.61333 -0.000217439 -2.00142e-05      -165.95 
         -50         1.92 -0.000249627 -2.13227e-05     -165.947 
         -50      2.25333 -0.000260704 -2.06109e-05     -165.944 
         -50      2.61333 -0.000258262 -2.00881e-05     -165.939 
         -50            3 -0.000259095 -2.14903e-05     -165.933 
         -25            0           -0           -0     -159.376 
         -25     0.013333 -0.000179471 -3.33422e-08     -159.376 
         -25     0.053333 -0.000147915 -7.63295e-08     -159.376 
         -25         0.12 -0.000125284 -6.56685e-08     -159.376 
         -25     0.213332  -0.00010883  1.54528e-07     -159.376 
         -25     0.333332 -9.81504e-05  7.31606e-07     -159.376 
         -25         0.48 -9.02754e-05  1.68875e-06     -159.376 
         -25     0.653331 -8.55453e-05   2.9655e-06     -159.376 
         -25     0.853332 -8.80829e-05  4.25921e-06     -159.376 
         -25         1.08  -9.9696e-05  5.03793e-06     -159.375 
         -25      1.33333  -0.00011472  5.43487e-06     -159.375 
         -25      1.61333 -0.000130807  5.22815e-06     -159.374 
         -25         1.92 -0.000146276  4.40577e-06     -159.373 
         -25      2.25333 -0.000159559  2.86173e-06     -159.371 
         -25      2.61333 -0.000168585  1.71061e-06     -159.369 
         -25            3  -0.00017309  1.17904e-06     -159.367 
           0            0            0            0     -153.959 
           0     0.013333 -0.000386477  0.000263745     -153.965 
           0     0.053333 -0.000260241  0.000136453     -153.974 
           0         0.12 -0.000199313  0.000100624     -153.985 
           0     0.213332 -0.000172275  7.66404e-05     -153.997 
           0     0.333332 -0.000160915  6.13745e-05     -154.009 
           0         0.48 -0.000152908  5.06526e-05      -154.02 
           0     0.653331 -0.000146981  4.27446e-05     -154.032 
           0     0.853332 -0.000143637  3.66539e-05     -154.043 
           0         1.08 -0.000142414  3.18149e-05     -154.054 
           0      1.33333 -0.000142808  2.79173e-05     -154.065 
           0      1.61333 -0.000143696  2.47327e-05     -154.075 
           0         1.92 -0.000141176  2.21832e-05     -154.084 
           0      2.25333 -0.000134463  2.01862e-05     -154.093 
           0      2.61333 -0.000123508  1.92928e-05     -154.102 
           0            3 -0.000114473  1.67342e-05     -154.109 
          20            0  0.000336479 -0.000385641     -150.724 
          20     0.013333  0.000336573 -0.000386658     -150.724 
          20     0.053333  0.000338791 -0.000389192     -150.724 
          20         0.12  0.000349871 -0.000391651     -150.724 
          20     0.213332  0.000382629 -0.000391403     -150.724 
          20     0.333332  0.000450469 -0.000385251     -150.723 
          20         0.48  0.000543209 -0.000371193     -150.723 
          20     0.653331  0.000599499 -0.000350235     -150.722 
          20     0.853332    0.0005498 -0.000325475     -150.722 
          20         1.08  0.000400678 -0.000298311     -150.721 
          20      1.33333  0.000207128 -0.000267912      -150.72 
          20      1.61333  2.78757e-07 -0.000234155     -150.719 
          20         1.92  -0.00019316 -0.000198306     -150.718 
          20      2.25333 -0.000343178 -0.000162165     -150.717 
          20      2.61333  -0.00042216 -0.000126625     -150.715 
          20            3 -0.000433676 -9.41745e-05     -150.713 
          40            0            0            0     -147.366 
          40     0.013333  0.000197996 -5.50815e-07     -147.366 
          40     0.053333   0.00114033 -6.67721e-06     -147.366 
          40         0.12   0.00231588 -2.13688e-05     -147.366 
          40     0.213332   0.00320533 -3.29831e-05     -147.366 
          40     0.333332   0.00359023 -2.55688e-05     -147.366 
          40         0.48   0.00360154 -7.92938e-07     -147.366 
          40     0.653331   0.00341957  2.87394e-05     -147.366 
          40     0.853332   0.00322008  6.82221e-05     -147.366 
          40         1.08   0.00279308  0.000117494     -147.366 
          40      1.33333   0.00198274  0.000156358     -147.365 
          40      1.61333   0.00104208   0.00018208     -147.365 
          40         1.92  0.000154411   0.00019515     -147.364 
          40      2.25333 -0.000548444  0.000195174     -147.364 
          40      2.61333 -0.000984367  0.000187192     -147.363 
          40            3  -0.00115443   0.00017142     -147.362 
          60            0            0            0      -144.09 
          60     0.013333  0.000160001 -8.19676e-08      -144.09 
          60     0.053333  0.000888583 -1.96213e-07      -144.09 
          60         0.12   0.00162418  4.78995e-06      -144.09 
          60     0.213332   0.00198889  2.73506e-05      -144.09 
          60     0.333332   0.00198757  7.73639e-05      -144.09 
          60         0.48    0.0019301  0.000154213      -144.09 
          60     0.653331   0.00202424  0.000247527      -144.09 
          60     0.853332   0.00209963  0.000334735      -144.09 
          60         1.08   0.00184947  0.000395609      -144.09 
          60      1.33333   0.00131033  0.000428001      -144.09 
          60      1.61333   0.00069203  0.000441412      -144.09 
          60         1.92  0.000112425   0.00043734      -144.09 
          60      2.25333  -0.00035907  0.000413675      -144.09 
          60      2.61333 -0.000668977  0.000377437      -144.09 
          60            3 -0.000802626  0.000332565     -144.089 
          80            0           -0           -0     -140.942 
          80     0.013333 -7.29104e-05  7.16706e-08     -140.942 
          80     0.053333  5.90122e-05  1.19096e-06     -140.942 
          80         0.12  0.000174926  5.64222e-06     -140.942 
          80     0.213332  0.000252575  1.49912e-05     -140.942 
          80     0.333332  0.000326634   2.8384e-05     -140.942 
          80         0.48  0.000433253  4.47228e-05     -140.942 
          80     0.653331  0.000586809  6.44967e-05     -140.942 
          80     0.853332  0.000727498  8.42034e-05     -140.942 
          80         1.08   0.00067234  9.18427e-05     -140.942 
          80      1.33333  0.000431133  8.18866e-05     -140.942 
          80      1.61333  0.000223058  6.47663e-05     -140.942 
          80         1.92  4.96904e-05  4.59834e-05     -140.942 
          80      2.25333 -0.000102903  2.62931e-05     -140.942 
          80      2.61333 -0.000216328  7.66935e-06     -140.942 
          80            3 -0.000278013 -9.60046e-06     -140.941 
         100            0           -0           -0     -137.863 
         100     0.013333 -0.000244678  1.63887e-07     -137.863 
         100     0.053333 -0.000570098   2.1033e-06     -137.863 
         100         0.12  -0.00100123  7.04754e-06     -137.863 
         100     0.213332  -0.00133863  1.14958e-05     -137.863 
         100     0.333332  -0.00147446  8.99768e-06     -137.863 
         100         0.48  -0.00146468    -3.39e-06     -137.863 
         100     0.653331  -0.00138498 -2.19878e-05     -137.863 
         100     0.853332  -0.00120986 -3.90656e-05     -137.863 
         100         1.08 -0.000953063 -5.25034e-05     -137.863 
         100      1.33333 -0.000720508 -6.57166e-05     -137.863 
         100      1.61333  -0.00049753  -7.8583e-05     -137.863 
         100         1.92 -0.000262408 -8.83034e-05     -137.863 
         100      2.25333 -5.22315e-05 -9.35892e-05     -137.863 
         100      2.61333  0.000102597 -9.51133e-05     -137.863 
         100            3  0.000190436 -9.23118e-05     -137.862 
         150            0            0            0     -130.319 
         150     0.013333 -0.000152015  2.98015e-08     -130.319 
         150     0.053333 -0.000230053  4.51687e-07     -130.319 
         150         0.12 -0.000355175   1.9538e-06     -130.319 
         150     0.213332 -0.000475963  4.60995e-06     -130.319 
         150     0.333332  -0.00053926  7.01268e-06     -130.319 
         150         0.48 -0.000531559  6.91235e-06     -130.319 
         150     0.653331 -0.000488715   2.6534e-06     -130.319 
         150     0.853332 -0.000453013 -6.18414e-06     -130.319 
         150         1.08  -0.00042545  -1.8387e-05     -130.319 
         150      1.33333 -0.000373761 -3.11604e-05     -130.319 
         150      1.61333   -0.0002955 -4.26131e-05     -130.319 
         150         1.92  -0.00021421 -5.24139e-05     -130.319 
         150      2.25333 -0.000138848 -5.97155e-05     -130.319 
         150      2.61333 -7.57828e-05 -6.42558e-05     -130.319 
         150            3 -3.25598e-05 -6.60747e-05     -130.319 
         200            0           -0           -0     -122.873 
         200     0.013333 -0.000295648  1.32429e-07     -122.873 
         200     0.053333 -0.000750926   1.5139e-06     -122.873 
         200         0.12  -0.00131014  3.88662e-06     -122.873 
         200     0.213332  -0.00171788  2.06389e-06     -122.873 
         200     0.333332  -0.00187178 -1.06352e-05     -122.873 
         200         0.48  -0.00187082 -3.61224e-05     -122.873 
         200     0.653331  -0.00183745 -7.01775e-05     -122.873 
         200     0.853332  -0.00175228 -0.000103856     -122.873 
         200         1.08  -0.00151755  -0.00012862     -122.873 
         200      1.33333  -0.00117883 -0.000143147     -122.873 
         200      1.61333 -0.000846675 -0.000152141     -122.872 
         200         1.92 -0.000516148 -0.000156229     -122.872 
         200      2.25333 -0.000198683 -0.000153605     -122.872 
         200      2.61333  6.87062e-05 -0.000145541     -122.872 
         200            3  0.000250419 -0.000132751     -122.872 
         250            0           -0           -0     -115.459 
         250     0.013333 -0.000174708 -1.12225e-07     -115.459 
         250     0.053333  -0.00026859 -1.76997e-06     -115.459 
         250         0.12 -0.000298995 -8.50908e-06     -115.459 
         250     0.213332 -0.000197456 -2.41423e-05     -115.459 
         250     0.333332 -1.68766e-05 -4.99396e-05     -115.459 
         250         0.48  0.000141729 -8.39933e-05     -115.459 
         250     0.653331  0.000220427 -0.000123396     -115.459 
         250     0.853332  0.000219239 -0.000165877     -115.459 
         250         1.08  0.000171292 -0.000209121     -115.459 
         250      1.33333  0.000119416 -0.000249683     -115.459 
         250      1.61333  7.74542e-05 -0.000284078     -115.459 
         250         1.92  2.96591e-05 -0.000309804     -115.459 
         250      2.25333  -2.2727e-05 -0.000324423     -115.459 
         250      2.61333 -7.23345e-05 -0.000326722     -115.459 
         250            3 -0.000113097 -0.000317172     -115.459 
         300            0           -0           -0     -108.058 
         300     0.013333 -0.000202066  1.87807e-07     -108.058 
         300     0.053333 -0.000453347  2.68586e-06     -108.058 
         300         0.12 -0.000876947  1.11947e-05     -108.058 
         300     0.213332  -0.00134136  2.67599e-05     -108.058 
         300     0.333332  -0.00167439  4.57491e-05     -108.058 
         300         0.48  -0.00180354  6.28691e-05     -108.058 
         300     0.653331  -0.00177894    7.548e-05     -108.058 
         300     0.853332  -0.00167007  8.44253e-05     -108.058 
         300         1.08  -0.00150097  9.16949e-05     -108.058 
         300      1.33333  -0.00127493  9.86137e-05     -108.058 
         300      1.61333  -0.00101253  0.000104566     -108.058 
         300         1.92 -0.000730819  0.000108122     -108.058 
         300      2.25333 -0.000439753  0.000108811     -108.058 
         300      2.61333 -0.000165628  0.000106121     -108.058 
         300            3  5.71478e-05  0.000100312     -108.058 
         350            0            0            0      -100.66 
         350     0.013333   0.00012711  3.50817e-07      -100.66 
         350     0.053333  0.000663098  5.63095e-06      -100.66 
         350         0.12   0.00100204  2.76849e-05      -100.66 
         350     0.213332  0.000850254  8.04089e-05      -100.66 
         350     0.333332  0.000336535   0.00017001      -100.66 
         350         0.48 -0.000176261  0.000291488      -100.66 
         350     0.653331 -0.000438684  0.000435258      -100.66 
         350     0.853332 -0.000424728  0.000592863      -100.66 
         350         1.08 -0.000281305  0.000754387      -100.66 
         350      1.33333 -0.000198954  0.000906563      -100.66 
         350      1.61333 -0.000204351   0.00103896      -100.66 
         350         1.92 -0.000210605   0.00114503      -100.66 
         350      2.25333  -0.00020539   0.00121612      -100.66 
         350      2.61333 -0.000194912   0.00124573      -100.66 
         350            3 -0.000181072   0.00123188      -100.66 
         400            0            0            0     -93.2619 
         400     0.013333  1.97878e-05 -4.12404e-07     -93.2619 
         400     0.053333  0.000499759 -5.86149e-06     -93.2619 
         400         0.12   0.00130642 -2.42996e-05     -93.2619 
         400     0.213332   0.00222437 -5.81989e-05     -93.2619 
         400     0.333332   0.00293202 -0.000101175     -93.2619 
         400         0.48   0.00328522  -0.00014438     -93.2619 
         400     0.653331   0.00335249 -0.000184552     -93.2619 
         400     0.853332   0.00321603 -0.000225531     -93.2619 
         400         1.08   0.00287334 -0.000273124     -93.2619 
         400      1.33333    0.0023664 -0.000327537     -93.2619 
         400      1.61333   0.00182451 -0.000381449     -93.2619 
         400         1.92   0.00128547 -0.000427578      -93.262 
         400      2.25333  0.000726118 -0.000462601      -93.262 
         400      2.61333  0.000172511 -0.000483403      -93.262 
         400            3 -0.000312513 -0.000488293     -93.2621 
         450            0            0            0     -85.8663 
         450     0.013333 -0.000254001 -8.70843e-08     -85.8663 
         450     0.053333  -0.00055717  -1.5145e-06     -85.8663 
         450         0.12 -0.000842206 -8.13248e-06     -85.8663 
         450     0.213332 -0.000935378 -2.54623e-05     -85.8663 
         450     0.333332  -0.00083911 -5.69966e-05     -85.8663 
         450         0.48 -0.000688222 -0.000101779     -85.8663 
         450     0.653331 -0.000603869 -0.000156205     -85.8663 
         450     0.853332 -0.000612559 -0.000216388     -85.8663 
         450         1.08 -0.000647444 -0.000277402     -85.8663 
         450      1.33333 -0.000610898 -0.000332929     -85.8663 
         450      1.61333 -0.000498281 -0.000379148     -85.8663 
         450         1.92  -0.00038058 -0.000415632     -85.8663 
         450      2.25333 -0.000266764 -0.000440563     -85.8663 
         450      2.61333 -0.000156075 -0.000451664     -85.8663 
         450            3 -5.72966e-05 -0.000447662     -85.8662 
         500            0           -0           -0     -78.4689 
         500     0.013333 -0.000126877  2.02149e-07     -78.4689 
         500     0.053333 -0.000190819  2.99325e-06     -78.4689 
         500         0.12 -0.000413805  1.32137e-05     -78.4689 
         500     0.213332 -0.000763992  3.42164e-05     -78.4689 
         500     0.333332  -0.00109754  6.48092e-05     -78.4689 
         500         0.48  -0.00129038  0.000100701     -78.4689 
         500     0.653331  -0.00132563  0.000138643     -78.4689 
         500     0.853332  -0.00124438  0.000178224     -78.4689 
         500         1.08  -0.00108585  0.000219932     -78.4689 
         500      1.33333 -0.000896297  0.000262292     -78.4689 
         500      1.61333 -0.000722937  0.000301713     -78.4689 
         500         1.92 -0.000564674  0.000334992     -78.4689 
         500      2.25333 -0.000400843   0.00035999     -78.4689 
         500      2.61333 -0.000233208  0.000374756     -78.4689 
         500            3 -7.95084e-05  0.000377929     -78.4689 
         550            0            0            0     -71.0692 
         550     0.013333  0.000157445 -2.39778e-07     -71.0692 
         550     0.053333  0.000945483 -3.15158e-06     -71.0692 
         550         0.12   0.00199443 -1.12025e-05     -71.0692 
         550     0.213332   0.00290402 -2.01703e-05     -71.0692 
         550     0.333332   0.00335066 -1.93735e-05     -71.0692 
         550         0.48   0.00334128 -3.05301e-07     -71.0692 
         550     0.653331   0.00311396  3.64734e-05     -71.0692 
         550     0.853332   0.00284095  8.26868e-05     -71.0692 
         550         1.08   0.00251038  0.000128204     -71.0692 
         550      1.33333   0.00208608  0.000167939     -71.0692 
         550      1.61333   0.00163548  0.000203585     -71.0692 
         550         1.92   0.00119787  0.000237073     -71.0692 
         550      2.25333  0.000745241  0.000266286     -71.0692 
         550      2.61333  0.000281808  0.000288654     -71.0693 
         550            3 -0.000152644  0.000302456     -71.0693 
         600            0            0            0     -63.6716 
         600     0.013333 -0.000502843  3.84724e-08     -63.6716 
         600     0.053333  -0.00148542  4.52869e-08     -63.6716 
         600         0.12  -0.00265665 -3.28377e-06     -63.6716 
         600     0.213332  -0.00350454 -1.95892e-05     -63.6716 
         600     0.333332  -0.00378792 -6.02864e-05     -63.6716 
         600         0.48  -0.00366348 -0.000130218     -63.6716 
         600     0.653331  -0.00345164 -0.000225458     -63.6716 
         600     0.853332  -0.00333277 -0.000336977     -63.6716 
         600         1.08  -0.00323313 -0.000452463     -63.6716 
         600      1.33333  -0.00295471 -0.000558759     -63.6716 
         600      1.61333  -0.00247049 -0.000649243     -63.6716 
         600         1.92  -0.00194333 -0.000725363     -63.6716 
         600      2.25333  -0.00140369 -0.000785701     -63.6716 
         600      2.61333 -0.000849831 -0.000825697     -63.6715 
         600            3 -0.000309514 -0.000841238     -63.6715 
         650            0            0            0     -56.2697 
         650     0.013333   2.7817e-05  3.96536e-08     -56.2697 
         650     0.053333  0.000409696   7.7354e-07     -56.2697 
         650         0.12   0.00082145   4.6377e-06     -56.2697 
         650     0.213332   0.00108494  1.58519e-05     -56.2697 
         650     0.333332   0.00114613  3.80128e-05     -56.2697 
         650         0.48   0.00108821  7.17334e-05     -56.2697 
         650     0.653331   0.00102647  0.000115178     -56.2697 
         650     0.853332   0.00102233   0.00016585     -56.2697 
         650         1.08   0.00105505  0.000220301     -56.2697 
         650      1.33333   0.00103052  0.000272803     -56.2697 
         650      1.61333  0.000884469  0.000317683     -56.2697 
         650         1.92  0.000682709   0.00035377     -56.2698 
         650      2.25333   0.00047295  0.000381414     -56.2698 
         650      2.61333  0.000261004  0.000399117     -56.2698 
         650            3  4.82726e-05  0.000404991     -56.2698 
         700            0            0            0      -48.869 
         700     0.013333  -0.00014478 -1.78799e-08      -48.869 
         700     0.053333 -0.000191676 -2.91218e-07      -48.869 
         700         0.12  -0.00024479 -1.45817e-06      -48.869 
         700     0.213332 -0.000270626 -4.32053e-06      -48.869 
         700     0.333332 -0.000266539 -9.33171e-06      -48.869 
         700         0.48 -0.000249876 -1.63646e-05      -48.869 
         700     0.653331 -0.000238481 -2.50336e-05      -48.869 
         700     0.853332 -0.000240468 -3.50727e-05      -48.869 
         700         1.08 -0.000254889 -4.62197e-05      -48.869 
         700      1.33333 -0.000267821 -5.76638e-05      -48.869 
         700      1.61333 -0.000259627 -6.79954e-05      -48.869 
         700         1.92 -0.000232701 -7.63842e-05      -48.869 
         700      2.25333  -0.00020218 -8.28227e-05      -48.869 
         700      2.61333 -0.000172523 -8.70972e-05      -48.869 
         700            3 -0.000142496 -8.88293e-05      -48.869 
         750            0 -2.70599e-19  1.19943e-26     -41.4671 
         750     0.013333 -0.000118154  3.61632e-09     -41.4671 
         750     0.053333 -0.000102126  5.56282e-08     -41.4671 
         750         0.12 -9.49754e-05  2.60636e-07     -41.4671 
         750     0.213332 -9.38154e-05  7.25769e-07     -41.4671 
         750     0.333332 -9.66467e-05  1.49024e-06     -41.4671 
         750         0.48 -9.98856e-05  2.51715e-06     -41.4671 
         750     0.653331  -0.00010181  3.75218e-06     -41.4671 
         750     0.853332 -0.000101771  5.17699e-06     -41.4671 
         750         1.08 -9.95829e-05  6.79258e-06     -41.4671 
         750      1.33333 -9.62155e-05   8.5443e-06     -41.4671 
         750      1.61333 -9.43336e-05  1.02336e-05     -41.4671 
         750         1.92 -9.54053e-05   1.1768e-05     -41.4671 
         750      2.25333 -9.73882e-05  1.29394e-05     -41.4671 
         750      2.61333 -9.95056e-05  1.38005e-05     -41.4671 
         750            3 -0.000102025  1.43787e-05     -41.4671 
         800            0            0            0     -34.0644 
         800     0.013333 -0.000121259 -3.17914e-10     -34.0644 
         800     0.053333 -0.000112001 -5.12827e-09     -34.0644 
         800         0.12 -0.000110421 -2.45478e-08     -34.0644 
         800     0.213332  -0.00011038 -6.96009e-08     -34.0644 
         800     0.333332 -0.000110618 -1.45289e-07     -34.0644 
         800         0.48 -0.000110453 -2.48715e-07     -34.0644 
         800     0.653331 -0.000110304 -3.75962e-07     -34.0644 
         800     0.853332 -0.000110317 -5.16158e-07     -34.0644 
         800         1.08 -0.000110492  -6.7545e-07     -34.0644 
         800      1.33333 -0.000110761 -8.47347e-07     -34.0644 
         800      1.61333 -0.000110834 -1.01165e-06     -34.0644 
         800         1.92 -0.000110423 -1.22294e-06     -34.0644 
         800      2.25333 -0.000109617 -1.32629e-06     -34.0644 
         800      2.61333 -0.000108566 -1.41886e-06     -34.0644 
         800            3  -0.00010753 -1.50436e-06     -34.0644 
         850            0           -0           -0     -26.6608 
         850     0.013333 -0.000120968   2.2822e-11     -26.6608 
         850     0.053333  -0.00011087  2.40616e-10     -26.6608 
         850         0.12 -0.000108503  1.18438e-09     -26.6608 
         850     0.213332 -0.000108111  3.53322e-09     -26.6608 
         850     0.333332  -0.00010842  7.69336e-09     -26.6608 
         850         0.48  -0.00010849  1.35749e-08     -26.6608 
         850     0.653331 -0.000108515  2.22525e-08     -26.6608 
         850     0.853332 -0.000108529  2.83257e-08     -26.6608 
         850         1.08 -0.000108526  3.68944e-08     -26.6608 
         850      1.33333 -0.000108528   4.9894e-08     -26.6608 
         850      1.61333 -0.000108463  6.31745e-08     -26.6608 
         850         1.92 -0.000108511  8.32675e-08     -26.6608 
         850      2.25333 -0.000108355  7.92989e-08     -26.6608 
         850      2.61333   -0.0001079  1.09722e-07     -26.6608 
         850            3 -0.000107238  1.82445e-07     -26.6608 
         900            0            0            0     -19.2563 
         900     0.013333 -0.000121054 -6.88506e-12     -19.2563 
         900     0.053333  -0.00011102 -8.71111e-11     -19.2563 
         900         0.12 -0.000108731  1.88714e-11     -19.2563 
         900     0.213332 -0.000108391  4.07396e-10     -19.2563 
         900     0.333332 -0.000108715  9.33459e-10     -19.2563 
         900         0.48 -0.000108781  1.36894e-09     -19.2563 
         900     0.653331 -0.000108798  1.90012e-09     -19.2563 
         900     0.853332 -0.000108808   3.5361e-09     -19.2563 
         900         1.08 -0.000108809  7.49402e-09     -19.2563 
         900      1.33333 -0.000108817   1.6449e-08     -19.2563 
         900      1.61333 -0.000108801  2.64501e-09     -19.2563 
         900         1.92 -0.000108803 -5.06668e-08     -19.2563 
         900      2.25333  -0.00010879  2.27271e-08     -19.2563 
         900      2.61333 -0.000108673  5.59456e-08     -19.2563 
         900            3 -0.000108348 -3.76958e-08     -19.2563 
         950            0            0            0      -11.851 
         950     0.013333 -0.000121125  6.12934e-12      -11.851 
         950     0.053333  -0.00011109 -7.17153e-11      -11.851 
         950         0.12 -0.000108801 -2.83263e-10      -11.851 
         950     0.213332  -0.00010846 -5.36021e-10      -11.851 
         950     0.333332 -0.000108786 -8.49809e-10      -11.851 
         950         0.48 -0.000108853 -1.43307e-09      -11.851 
         950     0.653331 -0.000108868 -2.98036e-09      -11.851 
         950     0.853332  -0.00010888 -4.80185e-09      -11.851 
         950         1.08 -0.000108885  3.52273e-10      -11.851 
         950      1.33333 -0.000108881 -5.89018e-09      -11.851 
         950      1.61333 -0.000108881 -4.47874e-08      -11.851 
         950         1.92 -0.000108921 -6.47086e-08      -11.851 
         950      2.25333 -0.000109124  6.78649e-09      -11.851 
         950      2.61333 -0.000109201  6.75156e-09      -11.851 
         950            3 -0.000108989 -9.16083e-08      -11.851 
        1000            0 -1.36689e-19  5.44398e-27     -4.44441 
        1000     0.013333 -0.000121191 -1.26341e-12     -4.44441 
        1000     0.053333 -0.000111146 -6.34119e-11     -4.44441 
        1000         0.12 -0.000108851 -1.00717e-10     -4.44441 
        1000     0.213332 -0.000108504 -1.34783e-10     -4.44441 
        1000     0.333332 -0.000108826 -3.05521e-10     -4.44441 
        1000         0.48 -0.000108892 -4.86455e-10     -4.44441 
        1000     0.653331 -0.000108906 -1.59901e-09     -4.44441 
        1000     0.853332 -0.000108913 -6.07807e-10     -4.44441 
        1000         1.08  -0.00010891 -1.73236e-09     -4.44441 
        1000      1.33333 -0.000108895 -1.21605e-08     -4.44441 
        1000      1.61333 -0.000108872 -6.06976e-08     -4.44441 
        1000         1.92 -0.000108931  1.82852e-08     -4.44441 
        1000      2.25333    -0.000109  2.15824e-08     -4.44441 
        1000      2.61333 -0.000109057  2.21288e-08     -4.44441 
        1000            3 -0.000109146  1.05192e-07     -4.44441 
