Variables = x, y, u, v, p

Zone, I=416, F=POINT
         -50            0            0            0      38.9902 
         -50     0.013333  3.51222e-05  2.46537e-08      38.9902 
         -50     0.053333  3.28806e-05   1.6814e-07      38.9902 
         -50         0.12  2.74893e-05  6.01193e-07      38.9902 
         -50     0.213332  1.98335e-05  1.38935e-06      38.9902 
         -50     0.333332  1.32911e-05  2.44707e-06      38.9902 
         -50         0.48  9.88246e-06  3.77131e-06      38.9901 
         -50     0.653331  1.08973e-05  4.63026e-06        38.99 
         -50     0.853332   1.5572e-05  6.94879e-06      38.9898 
         -50         1.08  2.13449e-05   8.9192e-06      38.9895 
         -50      1.33333  2.60703e-05  9.75371e-06      38.9891 
         -50      1.61333  2.79656e-05  1.10936e-05      38.9886 
         -50         1.92  2.87529e-05  1.22168e-05       38.988 
         -50      2.25333  2.82826e-05  1.18341e-05      38.9871 
         -50      2.61333   2.7925e-05  1.13632e-05       38.986 
         -50            3  3.02595e-05  1.43545e-05      38.9847 
         -25            0           -0           -0      37.4586 
         -25     0.013333  2.04654e-05  5.99315e-09      37.4586 
         -25     0.053333  6.49847e-06   2.5464e-08      37.4586 
         -25         0.12 -8.72873e-06 -5.58154e-09      37.4586 
         -25     0.213332 -1.91092e-05 -2.88808e-07      37.4586 
         -25     0.333332 -2.37587e-05 -1.02389e-06      37.4586 
         -25         0.48 -2.63688e-05 -2.29276e-06      37.4586 
         -25     0.653331 -2.83159e-05 -3.81687e-06      37.4585 
         -25     0.853332 -2.66468e-05 -5.36659e-06      37.4585 
         -25         1.08 -1.94256e-05 -6.69134e-06      37.4584 
         -25      1.33333   -8.535e-06 -7.62332e-06      37.4582 
         -25      1.61333  4.64476e-06 -8.13087e-06       37.458 
         -25         1.92    2.067e-05 -8.05475e-06      37.4578 
         -25      2.25333  3.58476e-05 -6.65858e-06      37.4575 
         -25      2.61333  4.35851e-05 -5.76022e-06      37.4571 
         -25            3   4.0653e-05 -8.55105e-06      37.4565 
           0            0            0            0      36.2011 
           0     0.013333  5.75451e-05 -3.21931e-05      36.2023 
           0     0.053333  4.89776e-05 -1.92063e-05      36.2045 
           0         0.12  4.69002e-05 -1.52129e-05      36.2069 
           0     0.213332  4.40667e-05 -1.19626e-05      36.2094 
           0     0.333332  3.96659e-05 -9.18253e-06      36.2119 
           0         0.48  3.57698e-05  -6.8654e-06      36.2144 
           0     0.653331  3.30862e-05 -4.75496e-06      36.2169 
           0     0.853332  2.99777e-05 -2.89754e-06      36.2193 
           0         1.08  2.55751e-05 -1.31894e-06      36.2216 
           0      1.33333  2.12209e-05  3.00136e-08      36.2238 
           0      1.61333   1.7321e-05  1.13575e-06      36.2259 
           0         1.92  1.35214e-05  1.83846e-06      36.2278 
           0      2.25333  1.02409e-05  2.12408e-06      36.2297 
           0      2.61333  9.97799e-06  2.62326e-06      36.2314 
           0            3  1.24905e-05  3.11089e-06      36.2329 
          20            0  0.000124885 -6.08941e-05      35.4282 
          20     0.013333  0.000123383 -6.08825e-05      35.4282 
          20     0.053333  0.000119404 -6.07062e-05      35.4282 
          20         0.12  0.000114775 -5.99325e-05      35.4282 
          20     0.213332   0.00011282 -5.78774e-05      35.4282 
          20     0.333332  0.000117005 -5.38782e-05      35.4281 
          20         0.48  0.000125709 -4.74347e-05      35.4281 
          20     0.653331   0.00012606  -3.8875e-05      35.4281 
          20     0.853332  0.000108837 -2.91112e-05       35.428 
          20         1.08  7.56918e-05 -1.90335e-05       35.428 
          20      1.33333  3.54139e-05 -9.13381e-06      35.4279 
          20      1.61333 -5.82235e-06  1.36846e-07      35.4278 
          20         1.92 -4.12419e-05   8.2499e-06      35.4277 
          20      2.25333   -6.671e-05  1.45267e-05      35.4275 
          20      2.61333 -7.79876e-05  1.95752e-05      35.4273 
          20            3 -7.44521e-05  2.38496e-05      35.4271 
          40            0  7.24645e-19   1.3181e-18      34.7029 
          40     0.013333   0.00148067   0.00131804       34.702 
          40     0.053333   0.00208664    0.0015712      34.7003 
          40         0.12   0.00180777   0.00105375      34.6984 
          40     0.213332   0.00150601  0.000684965      34.6963 
          40     0.333332   0.00130354  0.000445904      34.6941 
          40         0.48   0.00121432  0.000299257      34.6919 
          40     0.653331   0.00120411  0.000216759      34.6897 
          40     0.853332   0.00114225  0.000170694      34.6875 
          40         1.08  0.000934837  0.000138585      34.6854 
          40      1.33333   0.00062788  0.000111453      34.6834 
          40      1.61333  0.000296423  8.69596e-05      34.6814 
          40         1.92 -6.45954e-06  6.40125e-05      34.6795 
          40      2.25333 -0.000232275  4.27838e-05      34.6776 
          40      2.61333 -0.000357716  2.37795e-05      34.6758 
          40            3 -0.000392532  8.02944e-06       34.674 
          60            0            0            0      33.8992 
          60     0.013333  3.67257e-05  7.68317e-07      33.8992 
          60     0.053333 -0.000124125  1.14815e-05      33.8992 
          60         0.12 -0.000767252  5.04715e-05      33.8992 
          60     0.213332  -0.00173439  0.000127072      33.8992 
          60     0.333332  -0.00251613  0.000230129      33.8992 
          60         0.48  -0.00280103  0.000343987      33.8992 
          60     0.653331  -0.00259675  0.000467012      33.8992 
          60     0.853332  -0.00217458  0.000597421      33.8992 
          60         1.08  -0.00181043  0.000719326      33.8992 
          60      1.33333  -0.00140998  0.000818723      33.8991 
          60      1.61333 -0.000920008  0.000881953      33.8991 
          60         1.92  -0.00039966   0.00089887      33.8991 
          60      2.25333  5.99447e-05  0.000869416      33.8991 
          60      2.61333  0.000383865  0.000801231       33.899 
          60            3  0.000547475  0.000707471       33.899 
          80            0           -0           -0      33.1624 
          80     0.013333  5.12364e-05  1.21443e-06      33.1624 
          80     0.053333 -0.000152981  1.77073e-05      33.1624 
          80         0.12  -0.00101438  7.58192e-05      33.1624 
          80     0.213332   -0.0023321  0.000187847      33.1624 
          80     0.333332  -0.00345951  0.000339534      33.1624 
          80         0.48  -0.00399289  0.000511541      33.1624 
          80     0.653331  -0.00377395  0.000706071      33.1624 
          80     0.853332  -0.00270621  0.000937489      33.1624 
          80         1.08  -0.00134731   0.00118418      33.1624 
          80      1.33333 -0.000538613   0.00139459      33.1624 
          80      1.61333 -0.000156171   0.00154174      33.1624 
          80         1.92  0.000192435   0.00161858      33.1624 
          80      2.25333  0.000497957   0.00161892      33.1625 
          80      2.61333  0.000694785   0.00154814      33.1625 
          80            3  0.000768804   0.00142731      33.1625 
         100            0  3.62416e-20  1.38195e-25      32.4435 
         100     0.013333  5.11004e-05   9.5291e-07      32.4435 
         100     0.053333 -7.28117e-05  1.38123e-05      32.4435 
         100         0.12 -0.000656763  5.87479e-05      32.4435 
         100     0.213332  -0.00154602  0.000144961      32.4435 
         100     0.333332   -0.0022743  0.000262259      32.4435 
         100         0.48   -0.0025563    0.0003971      32.4435 
         100     0.653331  -0.00229674  0.000549253      32.4435 
         100     0.853332   -0.0015125  0.000721552      32.4435 
         100         1.08 -0.000722507  0.000887803      32.4435 
         100      1.33333 -0.000442444   0.00101053      32.4435 
         100      1.61333 -0.000294876   0.00108552      32.4436 
         100         1.92  -1.0437e-05   0.00111944      32.4436 
         100      2.25333  0.000269464   0.00110764      32.4436 
         100      2.61333  0.000452752   0.00105151      32.4436 
         100            3  0.000535594  0.000963262      32.4437 
         150            0 -1.70082e-19  1.34264e-25       30.683 
         150     0.013333 -0.000262966  4.82844e-08       30.683 
         150     0.053333 -0.000975345  1.71269e-07       30.683 
         150         0.12  -0.00177033 -2.77865e-06       30.683 
         150     0.213332  -0.00226781 -1.80905e-05       30.683 
         150     0.333332  -0.00234459 -5.62235e-05       30.683 
         150         0.48  -0.00217744   -0.0001208       30.683 
         150     0.653331  -0.00198887  -0.00020715       30.683 
         150     0.853332  -0.00183131  -0.00030516       30.683 
         150         1.08  -0.00161303 -0.000403588       30.683 
         150      1.33333  -0.00127018 -0.000491424       30.683 
         150      1.61333 -0.000842952  -0.00056211       30.683 
         150         1.92 -0.000414004 -0.000611914      30.6831 
         150      2.25333 -2.62565e-05 -0.000635409      30.6831 
         150      2.61333  0.000287809 -0.000632785      30.6831 
         150            3  0.000495346 -0.000606667      30.6832 
         200            0 -1.35799e-20  3.03794e-26      28.9455 
         200     0.013333 -7.75244e-05  4.95281e-07      28.9455 
         200     0.053333 -0.000449609  7.22306e-06      28.9455 
         200         0.12  -0.00118183   3.1001e-05      28.9455 
         200     0.213332  -0.00208315  7.69576e-05      28.9455 
         200     0.333332    -0.002785  0.000138152      28.9455 
         200         0.48  -0.00308932  0.000202491      28.9455 
         200     0.653331  -0.00305188  0.000263486      28.9455 
         200     0.853332  -0.00279307  0.000321315      28.9455 
         200         1.08  -0.00239886  0.000375648      28.9455 
         200      1.33333  -0.00192452  0.000424465      28.9455 
         200      1.61333  -0.00140217   0.00046367      28.9455 
         200         1.92 -0.000843189  0.000488689      28.9456 
         200      2.25333 -0.000291766  0.000496967      28.9456 
         200      2.61333  0.000183935  0.000486589      28.9456 
         200            3  0.000524355  0.000460043      28.9457 
         250            0           -0           -0       27.216 
         250     0.013333 -0.000199418  5.82748e-07       27.216 
         250     0.053333   -0.0008827  8.00516e-06       27.216 
         250         0.12  -0.00194645  3.13754e-05       27.216 
         250     0.213332  -0.00301773  6.97516e-05       27.216 
         250     0.333332   -0.0037227   0.00011146       27.216 
         250         0.48  -0.00401511  0.000146902       27.216 
         250     0.653331  -0.00403812  0.000178027       27.216 
         250     0.853332  -0.00379947  0.000217136       27.216 
         250         1.08  -0.00321944  0.000273876       27.216 
         250      1.33333   -0.0024671   0.00034182       27.216 
         250      1.61333  -0.00176471  0.000404124       27.216 
         250         1.92   -0.0010644  0.000453166      27.2161 
         250      2.25333 -0.000371241  0.000486686      27.2161 
         250      2.61333  0.000243838  0.000500675      27.2162 
         250            3  0.000702362   0.00049564      27.2163 
         300            0            0            0      25.4912 
         300     0.013333 -0.000243449 -4.22604e-07      25.4912 
         300     0.053333 -0.000768242 -6.84851e-06      25.4912 
         300         0.12  -0.00100667 -3.40104e-05      25.4912 
         300     0.213332 -0.000627905 -9.94213e-05      25.4912 
         300     0.333332  0.000163942  -0.00021046      25.4912 
         300         0.48  0.000892328 -0.000359443      25.4912 
         300     0.653331   0.00126014  -0.00053247      25.4912 
         300     0.853332   0.00127228  -0.00071727      25.4912 
         300         1.08   0.00112158 -0.000901301      25.4912 
         300      1.33333  0.000987284  -0.00107102      25.4912 
         300      1.61333  0.000866119  -0.00121696      25.4912 
         300         1.92  0.000703398  -0.00133094      25.4912 
         300      2.25333  0.000509962    -0.001402      25.4912 
         300      2.61333   0.00031157  -0.00142357      25.4912 
         300            3   0.00013309  -0.00139527      25.4912 
         350            0           -0           -0      23.7656 
         350     0.013333 -0.000191008  2.48395e-08      23.7656 
         350     0.053333 -0.000722872 -7.26597e-08      23.7656 
         350         0.12  -0.00133406    -2.94e-06      23.7656 
         350     0.213332   -0.0017837 -1.46468e-05      23.7656 
         350     0.333332  -0.00202805 -3.96651e-05      23.7656 
         350         0.48  -0.00219605  -7.6912e-05      23.7656 
         350     0.653331  -0.00239651 -0.000121791      23.7656 
         350     0.853332  -0.00258181 -0.000166835      23.7656 
         350         1.08  -0.00254273 -0.000199798      23.7656 
         350      1.33333  -0.00217475 -0.000211444      23.7656 
         350      1.61333    -0.001679 -0.000206497      23.7656 
         350         1.92  -0.00119666 -0.000192801      23.7656 
         350      2.25333 -0.000707124 -0.000171031      23.7656 
         350      2.61333 -0.000228896 -0.000142582      23.7657 
         350            3  0.000179182 -0.000109323      23.7657 
         400            0            0            0       22.042 
         400     0.013333 -0.000435483 -5.48219e-07       22.042 
         400     0.053333  -0.00143028 -8.83022e-06       22.042 
         400         0.12  -0.00216735  -4.3659e-05       22.042 
         400     0.213332  -0.00208746 -0.000127785       22.042 
         400     0.333332  -0.00132609 -0.000272795       22.042 
         400         0.48 -0.000457188 -0.000472966       22.042 
         400     0.653331  5.79549e-05 -0.000714889       22.042 
         400     0.853332  9.64767e-05 -0.000986306       22.042 
         400         1.08 -0.000134632  -0.00127091       22.042 
         400      1.33333 -0.000261513  -0.00154404       22.042 
         400      1.61333 -0.000185078  -0.00178584       22.042 
         400         1.92 -8.38471e-05  -0.00198619       22.042 
         400      2.25333   2.6556e-06  -0.00213094       22.042 
         400      2.61333  7.88343e-05  -0.00220748       22.042 
         400            3  0.000141376  -0.00220955       22.042 
         450            0           -0           -0      20.3185 
         450     0.013333  0.000353227  3.85125e-07      20.3185 
         450     0.053333   0.00109931  6.21504e-06      20.3185 
         450         0.12    0.0016648  3.09608e-05      20.3185 
         450     0.213332   0.00160896  9.18523e-05      20.3185 
         450     0.333332  0.000998069  0.000199262      20.3185 
         450         0.48  0.000264476   0.00035018      20.3185 
         450     0.653331 -0.000220699  0.000533027      20.3185 
         450     0.853332  -0.00036735  0.000735752      20.3185 
         450         1.08 -0.000298469  0.000947731      20.3185 
         450      1.33333 -0.000184936   0.00115827      20.3185 
         450      1.61333 -0.000120329   0.00135571      20.3185 
         450         1.92   -0.0001009   0.00152744      20.3185 
         450      2.25333 -8.75629e-05   0.00166069      20.3185 
         450      2.61333 -6.93315e-05    0.0017443      20.3185 
         450            3 -5.29293e-05   0.00177131      20.3185 
         500            0            0            0      18.5958 
         500     0.013333  2.86134e-05 -5.70342e-07      18.5958 
         500     0.053333  0.000208944   -8.318e-06      18.5958 
         500         0.12   0.00076582 -3.58942e-05      18.5958 
         500     0.213332   0.00160734 -9.05576e-05      18.5958 
         500     0.333332   0.00237544 -0.000167546      18.5958 
         500         0.48   0.00281276 -0.000256569      18.5958 
         500     0.653331   0.00291252 -0.000353083      18.5958 
         500     0.853332   0.00272521 -0.000461367      18.5958 
         500         1.08   0.00225807 -0.000586514      18.5958 
         500      1.33333   0.00166703 -0.000721577      18.5958 
         500      1.61333   0.00120452 -0.000848681      18.5958 
         500         1.92  0.000845525 -0.000956091      18.5958 
         500      2.25333  0.000487977  -0.00103873      18.5957 
         500      2.61333  0.000125176  -0.00109092      18.5957 
         500            3 -0.000196296  -0.00110805      18.5957 
         550            0            0            0      16.8719 
         550     0.013333 -5.53996e-05 -2.44256e-07      16.8719 
         550     0.053333  -0.00016491 -3.79392e-06      16.8719 
         550         0.12 -0.000101816 -1.78265e-05      16.8719 
         550     0.213332  0.000206742 -4.91485e-05      16.8719 
         550     0.333332  0.000598223 -9.82791e-05      16.8719 
         550         0.48  0.000846827 -0.000159353      16.8719 
         550     0.653331  0.000860276  -0.00022638      16.8719 
         550     0.853332  0.000678067 -0.000296817      16.8719 
         550         1.08  0.000417407 -0.000367471      16.8719 
         550      1.33333  0.000246989 -0.000430535      16.8719 
         550      1.61333  0.000216575  -0.00047979      16.8719 
         550         1.92  0.000194378 -0.000516185      16.8719 
         550      2.25333   0.00014622 -0.000539829      16.8719 
         550      2.61333  8.60158e-05 -0.000548731      16.8719 
         550            3  2.80594e-05 -0.000541026      16.8719 
         600            0            0            0      15.1473 
         600     0.013333  -0.00035184  4.63056e-07      15.1473 
         600     0.053333  -0.00143104  6.36522e-06      15.1473 
         600         0.12   -0.0029943  2.47613e-05      15.1473 
         600     0.213332  -0.00450108  5.32051e-05      15.1473 
         600     0.333332  -0.00540746  7.73727e-05      15.1473 
         600         0.48  -0.00560092  8.28078e-05      15.1473 
         600     0.653331  -0.00536653  6.70952e-05      15.1473 
         600     0.853332  -0.00497079  4.01386e-05      15.1473 
         600         1.08   -0.0044332   1.5946e-05      15.1473 
         600      1.33333  -0.00372542  1.12271e-06      15.1473 
         600      1.61333  -0.00297786 -9.16547e-06      15.1473 
         600         1.92  -0.00227569 -2.16629e-05      15.1474 
         600      2.25333  -0.00155473 -3.55475e-05      15.1474 
         600      2.61333 -0.000804581 -4.92748e-05      15.1474 
         600            3 -8.41768e-05 -6.20308e-05      15.1475 
         650            0            0            0      13.4283 
         650     0.013333  0.000561944 -3.93374e-07      13.4283 
         650     0.053333   0.00207923 -5.09825e-06      13.4283 
         650         0.12   0.00411984 -1.76641e-05      13.4283 
         650     0.213332   0.00593505 -3.02785e-05      13.4283 
         650     0.333332   0.00693746  -2.4929e-05      13.4283 
         650         0.48   0.00712567  1.23456e-05      13.4283 
         650     0.653331   0.00691757  8.09534e-05      13.4283 
         650     0.853332   0.00663299  0.000167511      13.4283 
         650         1.08   0.00621869  0.000252305      13.4283 
         650      1.33333   0.00548168  0.000319794      13.4283 
         650      1.61333   0.00450518  0.000369168      13.4283 
         650         1.92   0.00353019  0.000409505      13.4283 
         650      2.25333   0.00254059  0.000442267      13.4283 
         650      2.61333     0.001512  0.000464576      13.4282 
         650            3  0.000496905  0.000473658      13.4281 
         700            0           -0           -0      11.7034 
         700     0.013333 -0.000166427  6.91846e-08      11.7034 
         700     0.053333 -0.000659553  7.51015e-07      11.7034 
         700         0.12  -0.00128741   1.6137e-06      11.7034 
         700     0.213332  -0.00182295 -7.32116e-07      11.7034 
         700     0.333332  -0.00214144 -1.05209e-05      11.7034 
         700         0.48   -0.0022888 -2.93312e-05      11.7034 
         700     0.653331  -0.00238876  -5.6043e-05      11.7034 
         700     0.853332  -0.00251732 -8.80362e-05      11.7034 
         700         1.08  -0.00260859 -0.000118909      11.7034 
         700      1.33333  -0.00247285 -0.000137979      11.7034 
         700      1.61333  -0.00207007 -0.000139962      11.7034 
         700         1.92  -0.00162793 -0.000131605      11.7034 
         700      2.25333  -0.00120398 -0.000118902      11.7034 
         700      2.61333 -0.000776951 -0.000102965      11.7035 
         700            3 -0.000345181  -8.3464e-05      11.7035 
         750            0            0            0      9.98084 
         750     0.013333 -0.000463017  3.56056e-07      9.98084 
         750     0.053333  -0.00180434  4.70777e-06      9.98084 
         750         0.12  -0.00361424  1.68067e-05      9.98084 
         750     0.213332  -0.00519601  2.98643e-05      9.98084 
         750     0.333332  -0.00595105  2.57039e-05      9.98084 
         750         0.48  -0.00584047 -1.15947e-05      9.98083 
         750     0.653331  -0.00528998 -8.23148e-05      9.98083 
         750     0.853332  -0.00466743 -0.000171939      9.98083 
         750         1.08  -0.00400931 -0.000262254      9.98083 
         750      1.33333  -0.00327333 -0.000345113      9.98083 
         750      1.61333  -0.00258969 -0.000425424      9.98084 
         750         1.92  -0.00201251 -0.000507294      9.98086 
         750      2.25333  -0.00143228 -0.000585226      9.98089 
         750      2.61333 -0.000812203 -0.000652765      9.98094 
         750            3 -0.000194622 -0.000705131        9.981 
         800            0  2.81132e-19  2.20805e-26      8.26499 
         800     0.013333   0.00079391 -1.21873e-06      8.26499 
         800     0.053333   0.00319077 -1.73188e-05      8.26499 
         800         0.12   0.00698291 -7.15357e-05      8.26499 
         800     0.213332    0.0111199 -0.000168976      8.26499 
         800     0.333332    0.0141809 -0.000283832        8.265 
         800         0.48    0.0154787 -0.000379256        8.265 
         800     0.653331    0.0153938 -0.000438075        8.265 
         800     0.853332    0.0146072 -0.000472489      8.26501 
         800         1.08    0.0133554 -0.000510597      8.26501 
         800      1.33333     0.011611 -0.000570212      8.26501 
         800      1.61333   0.00964831 -0.000642518      8.26499 
         800         1.92   0.00782113 -0.000705576      8.26495 
         800      2.25333   0.00598615 -0.000751731      8.26489 
         800      2.61333   0.00403035 -0.000780175      8.26478 
         800            3   0.00201814 -0.000789729      8.26465 
         850            0            0            0      6.53702 
         850     0.013333  0.000294155  1.64249e-06      6.53702 
         850     0.053333  0.000496374  2.48181e-05      6.53702 
         850         0.12 -0.000563916  0.000113212      6.53703 
         850     0.213332  -0.00325397  0.000306073      6.53703 
         850     0.333332  -0.00659994  0.000608778      6.53703 
         850         0.48  -0.00921585  0.000992604      6.53702 
         850     0.653331   -0.0104288   0.00142414      6.53702 
         850     0.853332   -0.0103274   0.00189019      6.53702 
         850         1.08  -0.00920567   0.00239353      6.53702 
         850      1.33333  -0.00749654   0.00292537      6.53702 
         850      1.61333  -0.00587963   0.00345097      6.53703 
         850         1.92  -0.00471912   0.00393099      6.53705 
         850      2.25333  -0.00366288   0.00434417      6.53708 
         850      2.61333  -0.00251203    0.0046715      6.53714 
         850            3   -0.0013134   0.00489138      6.53722 
         900            0            0            0      4.81687 
         900     0.013333  -0.00114728 -6.97794e-07      4.81687 
         900     0.053333  -0.00394499 -1.17368e-05      4.81687 
         900         0.12  -0.00669455 -6.15531e-05      4.81687 
         900     0.213332  -0.00784445 -0.000192119      4.81687 
         900     0.333332  -0.00709188 -0.000435972      4.81687 
         900         0.48  -0.00540887 -0.000795139      4.81687 
         900     0.653331  -0.00401481  -0.00124597      4.81686 
         900     0.853332  -0.00351839  -0.00175997      4.81686 
         900         1.08   -0.0037907  -0.00231088      4.81686 
         900      1.33333  -0.00416359  -0.00286516      4.81686 
         900      1.61333  -0.00397472  -0.00338403      4.81687 
         900         1.92    -0.003273  -0.00384637      4.81688 
         900      2.25333   -0.0024867  -0.00424572       4.8169 
         900      2.61333  -0.00174328   -0.0045658      4.81694 
         900            3 -0.000981169   -0.0047841      4.81698 
         950            0           -0           -0      3.10162 
         950     0.013333  0.000964021 -7.05416e-07      3.10162 
         950     0.053333   0.00365427 -9.49075e-06      3.10162 
         950         0.12   0.00743466 -3.54232e-05      3.10162 
         950     0.213332    0.0110687 -7.05339e-05      3.10162 
         950     0.333332    0.0133877 -8.73334e-05      3.10162 
         950         0.48    0.0141175 -5.89339e-05      3.10163 
         950     0.653331    0.0138658  2.08845e-05      3.10163 
         950     0.853332    0.0133398  0.000136193      3.10164 
         950         1.08    0.0126997  0.000258075      3.10164 
         950      1.33333    0.0116189  0.000357191      3.10164 
         950      1.61333   0.00996136  0.000420589      3.10163 
         950         1.92   0.00815617  0.000461789       3.1016 
         950      2.25333   0.00639818  0.000495243      3.10155 
         950      2.61333   0.00461861  0.000521883      3.10147 
         950            3   0.00274843  0.000537039      3.10136 
        1000            0            0            0      1.37574 
        1000     0.013333  0.000225926   1.0182e-06      1.37574 
        1000     0.053333  0.000455308  1.51341e-05      1.37574 
        1000         0.12 -6.56028e-05  6.93176e-05      1.37574 
        1000     0.213332  -0.00163109  0.000189084      1.37574 
        1000     0.333332  -0.00368909  0.000380088      1.37574 
        1000         0.48  -0.00536362  0.000625844      1.37574 
        1000     0.653331  -0.00617964  0.000904503      1.37574 
        1000     0.853332  -0.00616561   0.00120639      1.37574 
        1000         1.08   -0.0055037   0.00153275      1.37574 
        1000      1.33333  -0.00443748   0.00188038      1.37574 
        1000      1.61333  -0.00338743   0.00223005      1.37574 
        1000         1.92  -0.00269641   0.00255561      1.37575 
        1000      2.25333  -0.00216597   0.00284136      1.37577 
        1000      2.61333  -0.00160953   0.00307688      1.37579 
        1000            3  -0.00100301   0.00325072      1.37583 
