Variables = x, y, u, v, p

Zone, I=416, F=POINT
         -50            0            0            0      219.921 
         -50     0.013333  0.000440111  1.05631e-07      219.921 
         -50     0.053333  0.000414392  3.50246e-07      219.921 
         -50         0.12  0.000412682  6.60985e-07      219.921 
         -50     0.213332  0.000418507  8.79404e-07      219.921 
         -50     0.333332    0.0004236  1.22216e-06      219.921 
         -50         0.48  0.000424849  2.14215e-06       219.92 
         -50     0.653331  0.000424172  3.75043e-06      219.919 
         -50     0.853332  0.000422544  5.13193e-06      219.918 
         -50         1.08  0.000419959  6.46399e-06      219.917 
         -50      1.33333  0.000416705  8.74062e-06      219.915 
         -50      1.61333  0.000412465  1.02428e-05      219.912 
         -50         1.92  0.000410845   1.2771e-05      219.908 
         -50      2.25333   0.00040586  1.40066e-05      219.903 
         -50      2.61333  0.000399246  1.58269e-05      219.897 
         -50            3  0.000397155  2.08135e-05      219.889 
         -25            0           -0           -0      211.275 
         -25     0.013333  0.000321373  4.17805e-08      211.275 
         -25     0.053333  0.000300035  1.82356e-07      211.275 
         -25         0.12  0.000294916  4.68019e-07      211.275 
         -25     0.213332  0.000297173  8.73547e-07      211.275 
         -25     0.333332  0.000303274  1.29657e-06      211.275 
         -25         0.48  0.000309618  1.61843e-06      211.275 
         -25     0.653331  0.000314577  2.23373e-06      211.275 
         -25     0.853332  0.000316308  2.73152e-06      211.275 
         -25         1.08  0.000314085  3.15695e-06      211.274 
         -25      1.33333  0.000310269  3.54283e-06      211.273 
         -25      1.61333  0.000306389  3.79819e-06      211.272 
         -25         1.92  0.000303344  4.55758e-06      211.271 
         -25      2.25333  0.000302902  5.10452e-06      211.269 
         -25      2.61333  0.000303852  6.13009e-06      211.266 
         -25            3  0.000304467  8.77774e-06      211.264 
           0            0            0            0      204.187 
           0     0.013333  0.000824226  -0.00048537      204.195 
           0     0.053333  0.000508334 -0.000254703      204.207 
           0         0.12  0.000400098  -0.00016953       204.22 
           0     0.213332  0.000349963 -0.000129865      204.234 
           0     0.333332  0.000321312 -0.000104936      204.248 
           0         0.48  0.000298495 -8.59708e-05      204.263 
           0     0.653331  0.000282589 -7.12412e-05      204.276 
           0     0.853332  0.000271585 -5.94465e-05       204.29 
           0         1.08  0.000263596 -4.97757e-05      204.303 
           0      1.33333   0.00025706 -4.17153e-05      204.315 
           0      1.61333   0.00025113 -3.48867e-05      204.327 
           0         1.92  0.000247197 -2.91394e-05      204.338 
           0      2.25333  0.000245435 -2.42225e-05      204.348 
           0      2.61333   0.00024706 -1.95812e-05      204.358 
           0            3  0.000248436  -1.6872e-05      204.367 
          20            0  0.000315303 -6.69922e-05      199.833 
          20     0.013333  0.000322547 -6.75965e-05      199.833 
          20     0.053333  0.000345062 -6.93957e-05      199.833 
          20         0.12  0.000384564 -7.23816e-05      199.833 
          20     0.213332  0.000440944 -7.67007e-05      199.833 
          20     0.333332  0.000506461 -8.25843e-05      199.833 
          20         0.48  0.000556626 -9.08739e-05      199.832 
          20     0.653331   0.00057021 -0.000101333      199.832 
          20     0.853332  0.000542523 -0.000112698      199.832 
          20         1.08  0.000487889 -0.000122863      199.832 
          20      1.33333  0.000422873  -0.00012973      199.831 
          20      1.61333  0.000348129 -0.000132071      199.831 
          20         1.92  0.000274503 -0.000129079       199.83 
          20      2.25333   0.00021414 -0.000120983      199.829 
          20      2.61333  0.000178376 -0.000108284      199.828 
          20            3  0.000161834 -9.49834e-05      199.827 
          40            0  8.47072e-19  1.14795e-18      195.752 
          40     0.013333  0.000884146  0.000573674      195.745 
          40     0.053333  0.000833345  0.000367032      195.735 
          40         0.12  0.000745054 -2.71429e-05      195.723 
          40     0.213332  0.000891702 -0.000336459      195.711 
          40     0.333332   0.00135877 -0.000535439      195.698 
          40         0.48   0.00199734 -0.000662992      195.686 
          40     0.653331   0.00247411 -0.000762085      195.673 
          40     0.853332   0.00248074 -0.000862176      195.661 
          40         1.08   0.00206541 -0.000957737      195.649 
          40      1.33333   0.00147161  -0.00102628      195.637 
          40      1.61333  0.000850808  -0.00105276      195.626 
          40         1.92  0.000288448  -0.00103226      195.615 
          40      2.25333 -0.000135371 -0.000968347      195.605 
          40      2.61333  -0.00037561 -0.000872458      195.595 
          40            3 -0.000446612 -0.000759893      195.585 
          60            0            0            0      191.226 
          60     0.013333  0.000369605 -1.26064e-06      191.226 
          60     0.053333   0.00099715 -1.78719e-05      191.226 
          60         0.12   0.00228358 -7.27177e-05      191.226 
          60     0.213332   0.00374408 -0.000168494      191.226 
          60     0.333332   0.00473937 -0.000282807      191.226 
          60         0.48   0.00510035 -0.000400216      191.226 
          60     0.653331   0.00488771 -0.000536116      191.226 
          60     0.853332   0.00425592 -0.000709461      191.226 
          60         1.08   0.00351423  -0.00089881      191.226 
          60      1.33333   0.00261932   -0.0010724      191.226 
          60      1.61333   0.00159155  -0.00120142      191.226 
          60         1.92  0.000593553  -0.00126559      191.225 
          60      2.25333 -0.000231777  -0.00126229      191.225 
          60      2.61333 -0.000772206  -0.00119707      191.224 
          60            3  -0.00100479  -0.00109169      191.224 
          80            0           -0           -0      187.078 
          80     0.013333  0.000471969 -8.01048e-07      187.078 
          80     0.053333   0.00124027 -1.06097e-05      187.078 
          80         0.12   0.00236306 -3.86202e-05      187.078 
          80     0.213332    0.0032994 -7.63088e-05      187.078 
          80     0.333332   0.00369906  -0.00010314      187.078 
          80         0.48    0.0037283 -0.000111611      187.078 
          80     0.653331   0.00354735 -0.000122199      187.078 
          80     0.853332   0.00284489 -0.000176845      187.078 
          80         1.08   0.00162337 -0.000286733      187.078 
          80      1.33333  0.000681715 -0.000407874      187.078 
          80      1.61333  0.000204045 -0.000499963      187.077 
          80         1.92 -0.000176232 -0.000558066      187.077 
          80      2.25333 -0.000479531 -0.000582808      187.077 
          80      2.61333 -0.000651584 -0.000572968      187.077 
          80            3 -0.000682696 -0.000538812      187.076 
         100            0  3.64355e-19  7.64284e-25      183.027 
         100     0.013333  0.000551584 -3.47347e-07      183.027 
         100     0.053333    0.0014417 -4.13299e-06      183.027 
         100         0.12   0.00253563 -1.17914e-05      183.027 
         100     0.213332   0.00331256 -1.19049e-05      183.027 
         100     0.333332    0.0035601  1.17252e-05      183.027 
         100         0.48   0.00350112  6.48948e-05      183.027 
         100     0.653331   0.00336144  0.000136266      183.027 
         100     0.853332   0.00295128  0.000197549      183.027 
         100         1.08   0.00208898  0.000229106      183.027 
         100      1.33333   0.00129752  0.000246781      183.027 
         100      1.61333  0.000820009  0.000269765      183.027 
         100         1.92  0.000332079  0.000286929      183.027 
         100      2.25333 -0.000122514  0.000289934      183.027 
         100      2.61333 -0.000446774  0.000282301      183.026 
         100            3 -0.000606072  0.000265617      183.026 
         150            0  5.60246e-19  5.33221e-25       173.11 
         150     0.013333  0.000323783  -8.0942e-08       173.11 
         150     0.053333  0.000616549 -1.01351e-06       173.11 
         150         0.12   0.00100546 -3.21597e-06       173.11 
         150     0.213332   0.00132842 -4.38597e-06       173.11 
         150     0.333332   0.00148783 -2.07284e-07       173.11 
         150         0.48   0.00150874  1.23033e-05       173.11 
         150     0.653331   0.00146875  3.27826e-05       173.11 
         150     0.853332   0.00139489   5.7732e-05       173.11 
         150         1.08   0.00125802  8.28877e-05       173.11 
         150      1.33333   0.00104525  0.000104543       173.11 
         150      1.61333  0.000783843  0.000121306       173.11 
         150         1.92  0.000508329  0.000132666       173.11 
         150      2.25333  0.000255355  0.000137499       173.11 
         150      2.61333  5.34354e-05  0.000136697       173.11 
         150            3 -7.99753e-05  0.000130698       173.11 
         200            0  2.63254e-19  7.63784e-26      163.323 
         200     0.013333  0.000288982 -4.24555e-07      163.323 
         200     0.053333  0.000581883 -6.08673e-06      163.323 
         200         0.12   0.00116066 -2.54598e-05      163.323 
         200     0.213332   0.00184307 -6.13872e-05      163.323 
         200     0.333332   0.00234327 -0.000107327      163.323 
         200         0.48   0.00254113 -0.000154602      163.323 
         200     0.653331   0.00249224 -0.000200793      163.323 
         200     0.853332   0.00225605 -0.000249154      163.323 
         200         1.08   0.00189261 -0.000299534      163.323 
         200      1.33333   0.00150407  -0.00034623      163.323 
         200      1.61333    0.0011213 -0.000383241      163.323 
         200         1.92  0.000720229 -0.000407387      163.323 
         200      2.25333  0.000330801 -0.000416609      163.322 
         200      2.61333  5.66204e-07 -0.000409333      163.322 
         200            3 -0.000230947 -0.000387749      163.322 
         250            0           -0           -0      153.579 
         250     0.013333 -1.47047e-05 -5.57279e-07      153.579 
         250     0.053333 -0.000423933 -8.77621e-06      153.579 
         250         0.12 -0.000436051 -4.21233e-05      153.579 
         250     0.213332  0.000208655 -0.000119356      153.579 
         250     0.333332   0.00120448   -0.0002463      153.579 
         250         0.48   0.00203123 -0.000412284      153.579 
         250     0.653331   0.00242176 -0.000601253      153.579 
         250     0.853332   0.00241197 -0.000801062      153.579 
         250         1.08    0.0021682  -0.00100156      153.579 
         250      1.33333   0.00184899  -0.00119044      153.579 
         250      1.61333   0.00151656  -0.00135374      153.579 
         250         1.92   0.00114902  -0.00147799      153.579 
         250      2.25333  0.000758746  -0.00155061      153.579 
         250      2.61333  0.000389246  -0.00156513      153.579 
         250            3  8.82064e-05  -0.00152332      153.579 
         300            0            0            0      143.848 
         300     0.013333 -0.000758012  3.09187e-07      143.848 
         300     0.053333  -0.00329163  2.86149e-06      143.848 
         300         0.12  -0.00626244  1.43108e-06      143.848 
         300     0.213332  -0.00834621 -3.09012e-05      143.848 
         300     0.333332  -0.00895954 -0.000128251      143.848 
         300         0.48   -0.0085814 -0.000304983      143.848 
         300     0.653331  -0.00800345 -0.000547988      143.848 
         300     0.853332  -0.00750717 -0.000826078      143.848 
         300         1.08   -0.0067868  -0.00110236      143.848 
         300      1.33333  -0.00560632   -0.0013489      143.848 
         300      1.61333   -0.0041842  -0.00155821      143.848 
         300         1.92  -0.00269903  -0.00172459      143.849 
         300      2.25333  -0.00119208  -0.00183152      143.849 
         300      2.61333  0.000213938  -0.00187135      143.849 
         300            3   0.00134194  -0.00184289      143.849 
         350            0           -0           -0      134.128 
         350     0.013333  0.000353828  8.04991e-07      134.128 
         350     0.053333  0.000498919  1.19779e-05      134.128 
         350         0.12  0.000175851  5.34295e-05      134.128 
         350     0.213332 -0.000732359  0.000141023      134.128 
         350     0.333332   -0.0018429   0.00027527      134.128 
         350         0.48  -0.00270675  0.000445124      134.128 
         350     0.653331  -0.00312648  0.000640877      134.128 
         350     0.853332  -0.00306771  0.000860878      134.128 
         350         1.08   -0.0025715   0.00110402      134.128 
         350      1.33333  -0.00189594   0.00135549      134.128 
         350      1.61333  -0.00133645   0.00158826      134.128 
         350         1.92 -0.000842722   0.00178181      134.128 
         350      2.25333 -0.000344055   0.00192183      134.128 
         350      2.61333  0.000132221   0.00199606      134.128 
         350            3  0.000521638    0.0019996      134.128 
         400            0            0            0       124.41 
         400     0.013333   0.00024061 -7.10101e-07       124.41 
         400     0.053333  0.000513046 -1.05415e-05       124.41 
         400         0.12   0.00133768  -4.6676e-05       124.41 
         400     0.213332   0.00260862 -0.000121163       124.41 
         400     0.333332   0.00381699 -0.000229786       124.41 
         400         0.48   0.00452838 -0.000357003       124.41 
         400     0.653331   0.00468185 -0.000490678       124.41 
         400     0.853332   0.00441801 -0.000628324       124.41 
         400         1.08   0.00388537 -0.000769704       124.41 
         400      1.33333   0.00324761 -0.000908404       124.41 
         400      1.61333   0.00261572  -0.00103355       124.41 
         400         1.92   0.00196412  -0.00113593       124.41 
         400      2.25333   0.00127326  -0.00120757       124.41 
         400      2.61333  0.000586494  -0.00124158       124.41 
         400            3 -1.70288e-05  -0.00123483       124.41 
         450            0           -0           -0      114.686 
         450     0.013333 -0.000673616  2.96553e-07      114.686 
         450     0.053333  -0.00300125  2.92666e-06      114.686 
         450         0.12  -0.00575831  3.18014e-06      114.686 
         450     0.213332  -0.00770051  -2.2591e-05      114.686 
         450     0.333332  -0.00821344 -0.000106235      114.686 
         450         0.48  -0.00771207 -0.000262194      114.686 
         450     0.653331  -0.00699888 -0.000477968      114.686 
         450     0.853332   -0.0064383 -0.000724515      114.686 
         450         1.08  -0.00580553  -0.00096896      114.686 
         450      1.33333  -0.00484229  -0.00118879      114.686 
         450      1.61333  -0.00370285  -0.00138052      114.686 
         450         1.92  -0.00256759  -0.00154424      114.686 
         450      2.25333  -0.00141068  -0.00166829      114.686 
         450      2.61333 -0.000266993  -0.00174179      114.687 
         450            3  0.000748859  -0.00175833      114.687 
         500            0            0            0      104.969 
         500     0.013333  0.000861542  9.66869e-07      104.969 
         500     0.053333   0.00224923  1.51828e-05      104.969 
         500         0.12   0.00320298  7.28031e-05      104.969 
         500     0.213332   0.00294782  0.000207169      104.969 
         500     0.333332    0.0017571  0.000432445      104.969 
         500         0.48  0.000490717  0.000737558      104.969 
         500     0.653331 -0.000211517   0.00110277      104.969 
         500     0.853332 -0.000179242   0.00151406      104.969 
         500         1.08  0.000360608   0.00195519      104.969 
         500      1.33333   0.00084322   0.00239332      104.969 
         500      1.61333  0.000894848   0.00279082      104.969 
         500         1.92  0.000759519   0.00312738      104.969 
         500      2.25333  0.000613089   0.00338564      104.969 
         500      2.61333   0.00047567   0.00354582      104.969 
         500            3  0.000330979   0.00359331      104.969 
         550            0            0            0      95.2483 
         550     0.013333  0.000190255 -2.74418e-07      95.2483 
         550     0.053333   0.00018713 -3.89019e-06      95.2483 
         550         0.12  0.000311606 -1.61103e-05      95.2483 
         550     0.213332  0.000518187 -3.88795e-05      95.2483 
         550     0.333332  0.000689775 -6.94877e-05      95.2483 
         550         0.48  0.000783683 -0.000105143      95.2483 
         550     0.653331  0.000830214 -0.000147156      95.2483 
         550     0.853332  0.000809139 -0.000200847      95.2483 
         550         1.08   0.00062879 -0.000272034      95.2483 
         550      1.33333  0.000310662 -0.000359087      95.2483 
         550      1.61333  6.23685e-05 -0.000449128      95.2483 
         550         1.92 -3.71523e-05 -0.000529633      95.2483 
         550      2.25333 -8.55903e-05 -0.000596325      95.2483 
         550      2.61333 -0.000122639 -0.000645429      95.2483 
         550            3 -0.000135126 -0.000673493      95.2483 
         600            0            0            0      85.5291 
         600     0.013333  0.000361325 -6.72532e-07      85.5291 
         600     0.053333  0.000940741 -9.86695e-06      85.5291 
         600         0.12   0.00211755 -4.28182e-05      85.5291 
         600     0.213332   0.00362528 -0.000107906      85.5291 
         600     0.333332   0.00485899 -0.000196624      85.5291 
         600         0.48   0.00540431 -0.000290978      85.5291 
         600     0.653331   0.00530537 -0.000380304      85.5291 
         600     0.853332   0.00479572  -0.00046703      85.5291 
         600         1.08   0.00405801 -0.000556239      85.5291 
         600      1.33333   0.00330489 -0.000642698      85.5291 
         600      1.61333   0.00270077 -0.000715289      85.5291 
         600         1.92   0.00214518   -0.0007701      85.5291 
         600      2.25333   0.00154409 -0.000806543       85.529 
         600      2.61333  0.000904958 -0.000822286       85.529 
         600            3   0.00028954 -0.000814508      85.5289 
         650            0            0            0      75.8041 
         650     0.013333 -0.000611316  1.24797e-06      75.8041 
         650     0.053333  -0.00311085  1.75428e-05      75.8041 
         650         0.12  -0.00692542  7.10853e-05      75.8041 
         650     0.213332   -0.0108904  0.000163161      75.8041 
         650     0.333332   -0.0135992  0.000263433      75.8041 
         650         0.48   -0.0145301  0.000334271      75.8041 
         650     0.653331   -0.0142043  0.000362344      75.8041 
         650     0.853332    -0.013291  0.000364613      75.8041 
         650         1.08   -0.0119497  0.000370989      75.8041 
         650      1.33333   -0.0101696  0.000396429      75.8041 
         650      1.61333  -0.00825995  0.000429188      75.8041 
         650         1.92   -0.0064462  0.000451332      75.8042 
         650      2.25333   -0.0045717  0.000460004      75.8042 
         650      2.61333  -0.00259531  0.000456318      75.8044 
         650            3 -0.000649954  0.000440107      75.8045 
         700            0           -0           -0      66.0941 
         700     0.013333  0.000823481 -1.82668e-06      66.0941 
         700     0.053333   0.00296267 -2.64865e-05      66.0941 
         700         0.12   0.00689816 -0.000113356      66.0941 
         700     0.213332    0.0117843 -0.000282657      66.0941 
         700     0.333332    0.0159521  -0.00051286      66.0941 
         700         0.48    0.0182773 -0.000759769      66.0941 
         700     0.653331    0.0188548 -0.000995081      66.0941 
         700     0.853332    0.0182919  -0.00122352      66.0942 
         700         1.08     0.016859   -0.0014701      66.0942 
         700      1.33333    0.0146544  -0.00174734      66.0941 
         700      1.61333    0.0121469  -0.00203482      66.0941 
         700         1.92   0.00977109  -0.00229763      66.0941 
         700      2.25333   0.00734421  -0.00251569       66.094 
         700      2.61333   0.00476741  -0.00267696      66.0939 
         700            3   0.00217223  -0.00276975      66.0937 
         750            0            0            0      56.3698 
         750     0.013333   0.00092708  1.32865e-06      56.3698 
         750     0.053333   0.00237111  2.05108e-05      56.3698 
         750         0.12   0.00308681  9.66252e-05      56.3698 
         750     0.213332   0.00213201  0.000271793      56.3698 
         750     0.333332 -0.000114401  0.000564879      56.3698 
         750         0.48  -0.00248232  0.000963024      56.3698 
         750     0.653331  -0.00405805   0.00143927      56.3698 
         750     0.853332   -0.0045624   0.00197434      56.3698 
         750         1.08  -0.00410188   0.00255887      56.3698 
         750      1.33333  -0.00308268   0.00317484      56.3698 
         750      1.61333  -0.00214581   0.00378368      56.3698 
         750         1.92  -0.00159917    0.0043435      56.3698 
         750      2.25333  -0.00116403    0.0048269      56.3699 
         750      2.61333 -0.000686969   0.00520657      56.3699 
         750            3 -0.000203278   0.00545528      56.3699 
         800            0 -1.25672e-19 -2.18813e-26      46.6483 
         800     0.013333 -0.000821419  5.47896e-07      46.6483 
         800     0.053333  -0.00369328  7.14397e-06      46.6483 
         800         0.12   -0.0075706  2.49261e-05      46.6483 
         800     0.213332   -0.0111443  4.24953e-05      46.6483 
         800     0.333332   -0.0133009  3.12021e-05      46.6483 
         800         0.48    -0.013859 -3.54078e-05      46.6483 
         800     0.653331   -0.0134569   -0.0001632      46.6483 
         800     0.853332   -0.0127838 -0.000337235      46.6483 
         800         1.08   -0.0120316    -0.000532      46.6483 
         800      1.33333    -0.010998 -0.000723425      46.6483 
         800      1.61333  -0.00956142 -0.000897224      46.6483 
         800         1.92  -0.00788208  -0.00105143      46.6484 
         800      2.25333  -0.00607775  -0.00118585      46.6484 
         800      2.61333  -0.00416862  -0.00129412      46.6485 
         800            3  -0.00219248   -0.0013685      46.6486 
         850            0            0            0      36.9354 
         850     0.013333  0.000109976 -1.21374e-06      36.9354 
         850     0.053333  0.000217816  -1.8179e-05      36.9354 
         850         0.12   0.00130493 -8.18871e-05      36.9354 
         850     0.213332   0.00349217 -0.000218227      36.9354 
         850     0.333332   0.00600443 -0.000427932      36.9354 
         850         0.48   0.00788476 -0.000689072      36.9354 
         850     0.653331   0.00874054 -0.000979218      36.9354 
         850     0.853332   0.00867974  -0.00129217      36.9354 
         850         1.08    0.0078776  -0.00163384      36.9354 
         850      1.33333   0.00657983  -0.00200131      36.9354 
         850      1.61333   0.00526749  -0.00237065      36.9354 
         850         1.92   0.00425877  -0.00271204      36.9354 
         850      2.25333   0.00333027   -0.0030087      36.9354 
         850      2.61333   0.00233815  -0.00324657      36.9353 
         850            3   0.00130915  -0.00341022      36.9353 
         900            0            0            0      27.2149 
         900     0.013333  0.000775443  4.73171e-07      27.2149 
         900     0.053333    0.0020875  7.66648e-06      27.2149 
         900         0.12   0.00329872   3.8402e-05      27.2149 
         900     0.213332   0.00367485   0.00011468      27.2149 
         900     0.333332   0.00316889   0.00025063      27.2149 
         900         0.48    0.0023229   0.00044394      27.2149 
         900     0.653331   0.00171134  0.000681738      27.2149 
         900     0.853332   0.00158779  0.000952145      27.2149 
         900         1.08   0.00189316   0.00124587      27.2149 
         900      1.33333   0.00229376   0.00154703      27.2149 
         900      1.61333   0.00236599   0.00183123      27.2149 
         900         1.92   0.00205801     0.002082      27.2149 
         900      2.25333   0.00166194   0.00229553      27.2149 
         900      2.61333   0.00128819   0.00246439      27.2149 
         900            3  0.000900976   0.00257737      27.2149 
         950            0           -0           -0      17.4936 
         950     0.013333 -0.000230708  1.45021e-07      17.4936 
         950     0.053333  -0.00143457  1.69583e-06      17.4936 
         950         0.12  -0.00297732  4.37697e-06      17.4936 
         950     0.213332  -0.00429262  1.08715e-06      17.4936 
         950     0.333332  -0.00497144 -2.03501e-05      17.4936 
         950         0.48  -0.00502987  -6.8688e-05      17.4936 
         950     0.653331   -0.0047938 -0.000143676      17.4936 
         950     0.853332  -0.00456459 -0.000237905      17.4936 
         950         1.08  -0.00439909 -0.000340229      17.4936 
         950      1.33333  -0.00412624 -0.000437631      17.4936 
         950      1.61333  -0.00359696 -0.000520011      17.4936 
         950         1.92  -0.00292372 -0.000587518      17.4936 
         950      2.25333  -0.00224554 -0.000644756      17.4937 
         950      2.61333  -0.00157032 -0.000690944      17.4937 
         950            3 -0.000864828 -0.000722159      17.4937 
        1000            0            0            0      7.77605 
        1000     0.013333  0.000129126 -2.35744e-07      7.77605 
        1000     0.053333 -2.16259e-05 -3.60509e-06      7.77605 
        1000         0.12 -2.00741e-05 -1.63236e-05      7.77605 
        1000     0.213332  0.000219828  -4.3823e-05      7.77605 
        1000     0.333332  0.000601955  -8.7139e-05      7.77605 
        1000         0.48  0.000959776 -0.000143407      7.77605 
        1000     0.653331   0.00119608 -0.000209538      7.77605 
        1000     0.853332   0.00128776  -0.00028512      7.77605 
        1000         1.08   0.00121727 -0.000372201      7.77605 
        1000      1.33333  0.000984365 -0.000471388      7.77606 
        1000      1.61333  0.000691862   -0.0005774      7.77605 
        1000         1.92  0.000496469 -0.000680771      7.77605 
        1000      2.25333  0.000378629 -0.000774046      7.77605 
        1000      2.61333  0.000280284 -0.000853493      7.77604 
        1000            3  0.000176524 -0.000915859      7.77603 
