Variables = x, y, u, v, p

Zone, I=416, F=POINT
         -50            0            0            0     -111.882 
         -50     0.013333  -0.00018449 -6.80389e-08     -111.882 
         -50     0.053333 -0.000154485 -1.17811e-07     -111.882 
         -50         0.12 -0.000142414  2.17101e-08     -111.882 
         -50     0.213332 -0.000140925  7.00603e-07     -111.882 
         -50     0.333332 -0.000147555   2.1809e-06     -111.882 
         -50         0.48 -0.000153212  4.05863e-06     -111.882 
         -50     0.653331  -0.00015546  6.23516e-06     -111.882 
         -50     0.853332 -0.000156936  8.68361e-06     -111.881 
         -50         1.08 -0.000160075  1.06745e-05      -111.88 
         -50      1.33333 -0.000164748  1.19441e-05     -111.879 
         -50      1.61333 -0.000172042  1.20967e-05     -111.878 
         -50         1.92 -0.000180049  1.19217e-05     -111.876 
         -50      2.25333 -0.000188582  9.73377e-06     -111.873 
         -50      2.61333 -0.000189013  1.01086e-05      -111.87 
         -50            3 -0.000176684  1.74098e-05     -111.866 
         -25            0           -0           -0       -107.4 
         -25     0.013333 -0.000138457 -2.18304e-08       -107.4 
         -25     0.053333 -0.000124898  1.00082e-08       -107.4 
         -25         0.12 -0.000125411   2.1087e-07       -107.4 
         -25     0.213332 -0.000129512  6.57033e-07       -107.4 
         -25     0.333332 -0.000134277  1.30529e-06       -107.4 
         -25         0.48 -0.000136283  2.05284e-06       -107.4 
         -25     0.653331 -0.000136296  2.80826e-06     -107.399 
         -25     0.853332 -0.000135614   3.4565e-06     -107.399 
         -25         1.08 -0.000134709  3.98168e-06     -107.399 
         -25      1.33333  -0.00013224  4.37011e-06     -107.399 
         -25      1.61333  -0.00012809  4.49505e-06     -107.398 
         -25         1.92 -0.000125147  4.04966e-06     -107.397 
         -25      2.25333 -0.000124304  3.61524e-06     -107.396 
         -25      2.61333 -0.000120404  4.46551e-06     -107.395 
         -25            3 -0.000112206  6.40686e-06     -107.394 
           0            0            0            0     -103.698 
           0     0.013333  -0.00027932  0.000232163     -103.703 
           0     0.053333 -0.000198891  0.000112901      -103.71 
           0         0.12 -0.000141306  8.49704e-05     -103.718 
           0     0.213332 -9.79949e-05  6.37544e-05     -103.726 
           0     0.333332 -7.27681e-05  4.99989e-05     -103.735 
           0         0.48 -5.82997e-05   3.8661e-05     -103.744 
           0     0.653331 -5.27982e-05  2.92089e-05     -103.753 
           0     0.853332 -5.44734e-05  2.10568e-05     -103.762 
           0         1.08  -6.0697e-05  1.40771e-05      -103.77 
           0      1.33333 -7.02116e-05   8.2213e-06     -103.779 
           0      1.61333 -8.38345e-05  3.47986e-06     -103.786 
           0         1.92 -0.000100089  5.34061e-09     -103.794 
           0      2.25333 -0.000112954 -2.07115e-06     -103.801 
           0      2.61333 -0.000115556 -2.19957e-06     -103.808 
           0            3 -0.000110999 -1.90344e-06     -103.814 
          20            0            0            0     -101.518 
          20     0.013333 -0.000126717 -7.77661e-08     -101.518 
          20     0.053333 -0.000143121 -4.40314e-07     -101.518 
          20         0.12 -0.000168294 -1.49569e-06     -101.518 
          20     0.213332 -0.000182328 -3.58785e-06     -101.518 
          20     0.333332 -0.000178637 -7.28273e-06     -101.518 
          20         0.48 -0.000160648 -1.32718e-05     -101.518 
          20     0.653331 -0.000145968 -2.17218e-05     -101.517 
          20     0.853332 -0.000141264 -3.19974e-05     -101.517 
          20         1.08 -0.000138488 -4.29405e-05     -101.516 
          20      1.33333 -0.000130115 -5.30128e-05     -101.515 
          20      1.61333 -0.000117308 -6.09008e-05     -101.514 
          20         1.92 -0.000103536 -6.56182e-05     -101.513 
          20      2.25333 -9.16337e-05 -6.67817e-05     -101.511 
          20      2.61333 -8.37463e-05 -6.49484e-05     -101.509 
          20            3 -7.60231e-05 -5.95657e-05     -101.507 
          40            0 -1.35248e-19 -4.17827e-24     -99.1546 
          40     0.013333 -0.000139672  9.43975e-08     -99.1546 
          40     0.053333 -0.000244852  1.32407e-06     -99.1546 
          40         0.12 -0.000404449  4.90389e-06     -99.1546 
          40     0.213332 -0.000537328    9.819e-06     -99.1546 
          40     0.333332 -0.000595032  1.33963e-05     -99.1546 
          40         0.48 -0.000593384  1.44755e-05     -99.1546 
          40     0.653331 -0.000561173  1.46646e-05     -99.1545 
          40     0.853332 -0.000502293  1.61866e-05     -99.1545 
          40         1.08 -0.000418967  1.86637e-05     -99.1544 
          40      1.33333 -0.000316291  2.09089e-05     -99.1543 
          40      1.61333 -0.000207117  2.18656e-05     -99.1542 
          40         1.92 -0.000102332  2.15909e-05      -99.154 
          40      2.25333 -2.10554e-05   2.0152e-05     -99.1538 
          40      2.61333  3.06945e-05  1.84312e-05     -99.1535 
          40            3  5.89804e-05  1.85562e-05     -99.1531 
          60            0           -0           -0     -96.9388 
          60     0.013333 -0.000140587  3.33163e-08     -96.9388 
          60     0.053333 -0.000243548  3.65222e-07     -96.9388 
          60         0.12 -0.000367238  6.19471e-07     -96.9388 
          60     0.213332 -0.000442471 -1.07566e-06     -96.9388 
          60     0.333332 -0.000461309 -6.44989e-06     -96.9388 
          60         0.48 -0.000463063 -1.52141e-05     -96.9388 
          60     0.653331 -0.000468413 -2.50006e-05     -96.9388 
          60     0.853332 -0.000440683 -3.17339e-05     -96.9388 
          60         1.08 -0.000352605 -3.30777e-05     -96.9387 
          60      1.33333 -0.000253569 -3.09088e-05     -96.9387 
          60      1.61333  -0.00017205 -2.79218e-05     -96.9386 
          60         1.92 -9.58771e-05 -2.42283e-05     -96.9385 
          60      2.25333 -3.30343e-05 -1.96671e-05     -96.9384 
          60      2.61333  1.08632e-05 -1.47992e-05     -96.9382 
          60            3  3.41602e-05 -1.01562e-05      -96.938 
          80            0            0            0     -94.7943 
          80     0.013333 -0.000126189 -6.31543e-08     -94.7943 
          80     0.053333 -0.000177587 -1.00319e-06     -94.7943 
          80         0.12 -0.000197258 -4.94146e-06     -94.7943 
          80     0.213332 -0.000148274 -1.41032e-05     -94.7943 
          80     0.333332 -6.88254e-05 -2.88815e-05     -94.7943 
          80         0.48 -1.44458e-05 -4.78497e-05     -94.7943 
          80     0.653331 -9.76634e-06 -6.92525e-05     -94.7943 
          80     0.853332 -3.35723e-05 -9.07381e-05     -94.7943 
          80         1.08 -3.96313e-05 -0.000109051     -94.7942 
          80      1.33333 -3.01849e-05 -0.000122639     -94.7942 
          80      1.61333 -3.31767e-05 -0.000131867     -94.7942 
          80         1.92 -4.19315e-05 -0.000135783     -94.7941 
          80      2.25333 -5.33526e-05 -0.000133607      -94.794 
          80      2.61333  -6.3897e-05 -0.000126014     -94.7939 
          80            3 -7.06146e-05 -0.000114427     -94.7938 
         100            0           -0           -0     -92.6939 
         100     0.013333 -0.000135331 -3.88686e-08     -92.6939 
         100     0.053333 -0.000223368 -6.30235e-07     -92.6939 
         100         0.12 -0.000308678 -3.20541e-06     -92.6939 
         100     0.213332 -0.000338296 -9.55152e-06     -92.6939 
         100     0.333332 -0.000318674 -2.06589e-05     -92.6939 
         100         0.48 -0.000287428 -3.64275e-05     -92.6939 
         100     0.653331 -0.000276821 -5.61845e-05     -92.6938 
         100     0.853332 -0.000283879 -7.82281e-05     -92.6938 
         100         1.08 -0.000270677  -9.9438e-05     -92.6938 
         100      1.33333 -0.000227296 -0.000117137     -92.6938 
         100      1.61333 -0.000179317 -0.000130632     -92.6938 
         100         1.92 -0.000130164 -0.000138626     -92.6937 
         100      2.25333  -8.4705e-05 -0.000140339     -92.6937 
         100      2.61333 -4.90033e-05 -0.000135765     -92.6936 
         100            3 -2.41015e-05 -0.000125199     -92.6935 
         150            0           -0           -0     -87.5445 
         150     0.013333 -0.000130744  3.02887e-08     -87.5445 
         150     0.053333 -0.000226641   3.4835e-07     -87.5445 
         150         0.12  -0.00035135  8.88854e-07     -87.5445 
         150     0.213332 -0.000443376  4.69408e-07     -87.5445 
         150     0.333332 -0.000482094 -2.37364e-06     -87.5445 
         150         0.48 -0.000488496 -7.96559e-06     -87.5445 
         150     0.653331 -0.000485714  -1.5235e-05     -87.5445 
         150     0.853332 -0.000464416 -2.20647e-05     -87.5445 
         150         1.08 -0.000405022 -2.66913e-05     -87.5445 
         150      1.33333 -0.000323487 -2.90129e-05     -87.5445 
         150      1.61333 -0.000243101 -3.00648e-05     -87.5444 
         150         1.92 -0.000163331 -2.99262e-05     -87.5444 
         150      2.25333 -8.95973e-05 -2.83117e-05     -87.5444 
         150      2.61333 -3.06595e-05 -2.55998e-05     -87.5444 
         150            3  7.54077e-06 -2.18243e-05     -87.5443 
         200            0           -0           -0     -82.4593 
         200     0.013333 -0.000115514 -4.61274e-08     -82.4593 
         200     0.053333 -0.000156742 -7.28107e-07     -82.4593 
         200         0.12 -0.000179999 -3.50781e-06     -82.4593 
         200     0.213332 -0.000151786 -9.95873e-06     -82.4593 
         200     0.333332 -9.23021e-05 -2.06066e-05     -82.4593 
         200         0.48 -4.00641e-05 -3.47339e-05     -82.4593 
         200     0.653331 -1.82524e-05 -5.12611e-05     -82.4593 
         200     0.853332  -2.5444e-05 -6.91919e-05     -82.4593 
         200         1.08 -4.36067e-05 -8.72571e-05     -82.4593 
         200      1.33333  -5.5707e-05 -0.000103886     -82.4593 
         200      1.61333 -6.14086e-05 -0.000117746     -82.4593 
         200         1.92  -6.6926e-05 -0.000127786     -82.4593 
         200      2.25333 -7.25389e-05 -0.000132876     -82.4593 
         200      2.61333  -7.5894e-05 -0.000132666     -82.4593 
         200            3 -7.71269e-05 -0.000127811     -82.4593 
         250            0            0            0     -77.3965 
         250     0.013333 -8.37138e-05 -2.74514e-08     -77.3965 
         250     0.053333 -5.16047e-05 -3.84231e-07     -77.3965 
         250         0.12 -1.10868e-05 -1.54796e-06     -77.3965 
         250     0.213332  2.86091e-05 -3.53935e-06     -77.3965 
         250     0.333332  4.89622e-05 -5.78137e-06     -77.3965 
         250         0.48  4.80796e-05 -7.70226e-06     -77.3965 
         250     0.653331  3.45993e-05  -9.2834e-06     -77.3965 
         250     0.853332  1.36509e-05 -1.09748e-05     -77.3965 
         250         1.08 -1.33676e-05 -1.30353e-05     -77.3965 
         250      1.33333 -3.82227e-05 -1.50287e-05     -77.3965 
         250      1.61333 -5.68079e-05 -1.63672e-05     -77.3965 
         250         1.92  -7.4577e-05 -1.69404e-05     -77.3964 
         250      2.25333 -9.07291e-05 -1.68323e-05     -77.3964 
         250      2.61333 -0.000101935  -1.5929e-05     -77.3964 
         250            3 -0.000105965 -1.42979e-05     -77.3964 
         300            0           -0           -0     -72.3414 
         300     0.013333 -0.000105553 -7.78668e-08     -72.3414 
         300     0.053333 -0.000113805 -1.17777e-06     -72.3414 
         300         0.12 -7.99412e-05 -5.35243e-06     -72.3414 
         300     0.213332  1.38082e-05 -1.43144e-05     -72.3414 
         300     0.333332  0.000124087 -2.80527e-05     -72.3414 
         300         0.48  0.000201794 -4.51805e-05     -72.3414 
         300     0.653331  0.000227254 -6.44723e-05     -72.3414 
         300     0.853332  0.000205017 -8.54039e-05     -72.3414 
         300         1.08  0.000154839 -0.000107096     -72.3414 
         300      1.33333  0.000104163 -0.000127764     -72.3414 
         300      1.61333  6.07449e-05 -0.000145713     -72.3414 
         300         1.92  1.51867e-05 -0.000159708     -72.3414 
         300      2.25333 -3.34933e-05 -0.000168602     -72.3414 
         300      2.61333  -8.0043e-05 -0.000171486     -72.3414 
         300            3 -0.000118169 -0.000168314     -72.3414 
         350            0            0            0      -67.289 
         350     0.013333 -9.95252e-05  2.13875e-08      -67.289 
         350     0.053333 -0.000121708  3.22733e-07      -67.289 
         350         0.12 -0.000176621  1.46217e-06      -67.289 
         350     0.213332  -0.00024763    3.873e-06      -67.289 
         350     0.333332  -0.00031052   7.3768e-06      -67.289 
         350         0.48 -0.000344619  1.11836e-05      -67.289 
         350     0.653331 -0.000350489  1.44249e-05      -67.289 
         350     0.853332 -0.000342195  1.65928e-05      -67.289 
         350         1.08 -0.000328939  1.76966e-05      -67.289 
         350      1.33333  -0.00030444  1.83833e-05      -67.289 
         350      1.61333 -0.000264744  1.91922e-05      -67.289 
         350         1.92 -0.000218906  1.98596e-05      -67.289 
         350      2.25333 -0.000170502  2.01761e-05      -67.289 
         350      2.61333  -0.00012246  1.99976e-05      -67.289 
         350            3 -7.93552e-05  1.93306e-05      -67.289 
         400            0 -7.27506e-20 -1.45634e-27     -62.2371 
         400     0.013333  8.76204e-06  3.79665e-08     -62.2371 
         400     0.053333  0.000254935  7.60222e-07     -62.2371 
         400         0.12  0.000482318  4.64753e-06     -62.2371 
         400     0.213332  0.000561875  1.59995e-05     -62.2371 
         400     0.333332  0.000484911  3.81449e-05     -62.2371 
         400         0.48  0.000357737  7.07223e-05     -62.2371 
         400     0.653331  0.000278304  0.000110373     -62.2371 
         400     0.853332  0.000258034  0.000152823     -62.2371 
         400         1.08  0.000238968  0.000193769     -62.2371 
         400      1.33333  0.000179356  0.000230188     -62.2371 
         400      1.61333  0.000102819  0.000261432     -62.2371 
         400         1.92  3.19567e-05   0.00028687     -62.2371 
         400      2.25333 -3.65011e-05  0.000304325     -62.2371 
         400      2.61333 -0.000101134  0.000312116     -62.2371 
         400            3 -0.000154929  0.000309519     -62.2371 
         450            0            0            0     -57.1853 
         450     0.013333  6.10134e-05 -1.83632e-07     -57.1853 
         450     0.053333  0.000502302 -2.44418e-06     -57.1853 
         450         0.12   0.00109882 -8.96076e-06     -57.1853 
         450     0.213332   0.00162421 -1.74493e-05     -57.1853 
         450     0.333332   0.00189022 -2.13987e-05     -57.1853 
         450         0.48    0.0019076 -1.59234e-05     -57.1853 
         450     0.653331   0.00180972 -2.02632e-06     -57.1853 
         450     0.853332   0.00166961  1.44723e-05     -57.1853 
         450         1.08   0.00145364  2.70517e-05     -57.1853 
         450      1.33333   0.00115878  3.38629e-05     -57.1853 
         450      1.61333   0.00086498  3.84899e-05     -57.1853 
         450         1.92  0.000588689  4.33488e-05     -57.1853 
         450      2.25333  0.000305256  4.75655e-05     -57.1853 
         450      2.61333  2.16585e-05   5.0582e-05     -57.1854 
         450            3 -0.000230763   5.2168e-05     -57.1854 
         500            0           -0           -0     -52.1346 
         500     0.013333 -0.000209951 -1.98591e-07     -52.1346 
         500     0.053333 -0.000450523 -3.10849e-06     -52.1346 
         500         0.12 -0.000598665 -1.48244e-05     -52.1346 
         500     0.213332 -0.000510647  -4.1865e-05     -52.1346 
         500     0.333332 -0.000257542 -8.65889e-05     -52.1346 
         500         0.48 -1.36256e-05  -0.00014625     -52.1346 
         500     0.653331  0.000103322 -0.000216717     -52.1346 
         500     0.853332  7.13162e-05 -0.000295379     -52.1346 
         500         1.08 -5.70896e-05 -0.000379206     -52.1346 
         500      1.33333 -0.000163782 -0.000461533     -52.1346 
         500      1.61333 -0.000176343 -0.000534914     -52.1346 
         500         1.92 -0.000155217 -0.000595979     -52.1346 
         500      2.25333 -0.000135607 -0.000641909     -52.1346 
         500      2.61333  -0.00011943 -0.000669181     -52.1346 
         500            3 -0.000103065 -0.000675128     -52.1346 
         550            0            0            0     -47.0836 
         550     0.013333 -9.63477e-05   1.2375e-07     -47.0836 
         550     0.053333 -0.000136743  1.80891e-06     -47.0836 
         550         0.12  -0.00027375  7.84966e-06     -47.0836 
         550     0.213332 -0.000482268  1.99959e-05     -47.0836 
         550     0.333332 -0.000681899  3.74524e-05     -47.0836 
         550         0.48 -0.000807396   5.7985e-05     -47.0836 
         550     0.653331 -0.000851885  8.01798e-05     -47.0836 
         550     0.853332 -0.000830703  0.000104374     -47.0836 
         550         1.08 -0.000747446  0.000131661     -47.0836 
         550      1.33333 -0.000618441  0.000161676     -47.0836 
         550      1.61333 -0.000490648  0.000191524     -47.0836 
         550         1.92 -0.000384347  0.000217895     -47.0836 
         550      2.25333 -0.000279498  0.000239227     -47.0836 
         550      2.61333  -0.00017082  0.000254006     -47.0836 
         550            3 -6.89995e-05  0.000261008     -47.0836 
         600            0           -0           -0     -42.0322 
         600     0.013333 -5.50322e-05 -2.10953e-08     -42.0322 
         600     0.053333  4.81742e-05 -2.43099e-07     -42.0322 
         600         0.12  0.000163193   -6.113e-07     -42.0322 
         600     0.213332   0.00024095 -1.24076e-07     -42.0322 
         600     0.333332  0.000251818  2.72677e-06     -42.0322 
         600         0.48  0.000217037  8.61432e-06     -42.0322 
         600     0.653331   0.00017687  1.67683e-05     -42.0322 
         600     0.853332  0.000148295  2.55378e-05     -42.0322 
         600         1.08  0.000116038    3.314e-05     -42.0322 
         600      1.33333  6.56768e-05  3.86599e-05     -42.0322 
         600      1.61333  1.21285e-05  4.26147e-05     -42.0322 
         600         1.92 -2.82168e-05  4.57735e-05     -42.0322 
         600      2.25333  -6.2886e-05  4.83074e-05     -42.0322 
         600      2.61333 -9.54581e-05  4.97383e-05     -42.0322 
         600            3 -0.000122888  4.97249e-05     -42.0322 
         650            0           -0           -0     -36.9812 
         650     0.013333 -0.000168064 -3.45481e-08     -36.9812 
         650     0.053333  -0.00034854 -6.15467e-07     -36.9812 
         650         0.12 -0.000541379 -3.41824e-06     -36.9812 
         650     0.213332 -0.000638716   -1.113e-05     -36.9812 
         650     0.333332 -0.000617668 -2.59463e-05     -36.9812 
         650         0.48 -0.000535527 -4.81109e-05     -36.9812 
         650     0.653331 -0.000466448 -7.62126e-05     -36.9812 
         650     0.853332 -0.000444902 -0.000108376     -36.9812 
         650         1.08 -0.000454181 -0.000142403     -36.9812 
         650      1.33333 -0.000445983 -0.000175517     -36.9812 
         650      1.61333 -0.000395841  -0.00020545     -36.9812 
         650         1.92 -0.000329588 -0.000231579     -36.9812 
         650      2.25333 -0.000261268 -0.000253044     -36.9812 
         650      2.61333 -0.000192261  -0.00026852     -36.9812 
         650            3 -0.000123493 -0.000276628     -36.9812 
         700            0 -1.93518e-19   4.8367e-27     -31.9298 
         700     0.013333 -5.82308e-05  6.61487e-08     -31.9298 
         700     0.053333  1.13031e-05  1.04803e-06     -31.9298 
         700         0.12  2.45968e-05   5.0847e-06     -31.9298 
         700     0.213332  -5.6105e-05  1.46117e-05     -31.9298 
         700     0.333332  -0.00019492  3.05773e-05     -31.9298 
         700         0.48 -0.000311382  5.16874e-05     -31.9298 
         700     0.653331 -0.000355848   7.5656e-05     -31.9298 
         700     0.853332 -0.000331765  0.000100762     -31.9298 
         700         1.08 -0.000273465  0.000125827     -31.9298 
         700      1.33333 -0.000223251  0.000149341     -31.9298 
         700      1.61333 -0.000202238  0.000169741     -31.9298 
         700         1.92 -0.000190838  0.000186504     -31.9298 
         700      2.25333 -0.000173032  0.000199445     -31.9298 
         700      2.61333 -0.000148575  0.000207657     -31.9298 
         700            3 -0.000123278   0.00021024     -31.9298 
         750            0           -0           -0     -26.8783 
         750     0.013333 -0.000268495 -1.05342e-07     -26.8783 
         750     0.053333 -0.000683251 -1.79939e-06     -26.8783 
         750         0.12  -0.00108304 -9.61834e-06     -26.8783 
         750     0.213332  -0.00121142 -3.05827e-05     -26.8783 
         750     0.333332   -0.0010206 -7.05041e-05     -26.8783 
         750         0.48 -0.000674115 -0.000130104     -26.8783 
         750     0.653331 -0.000378429 -0.000205269     -26.8783 
         750     0.853332 -0.000230919 -0.000290442     -26.8783 
         750         1.08 -0.000203775 -0.000380501     -26.8783 
         750      1.33333   -0.0002067 -0.000470517     -26.8783 
         750      1.61333 -0.000177382 -0.000555931     -26.8783 
         750         1.92 -0.000127097 -0.000634178     -26.8783 
         750      2.25333 -7.90907e-05 -0.000701739     -26.8783 
         750      2.61333 -3.79836e-05   -0.0007548     -26.8783 
         750            3 -1.14758e-06 -0.000789476     -26.8783 
         800            0            0            0     -21.8253 
         800     0.013333  0.000160168 -2.09206e-07     -21.8253 
         800     0.053333  0.000888695 -2.86117e-06     -21.8253 
         800         0.12   0.00191998 -1.10351e-05     -21.8253 
         800     0.213332   0.00293847 -2.33305e-05     -21.8253 
         800     0.333332   0.00362095 -3.26112e-05     -21.8253 
         800         0.48   0.00387025 -3.10671e-05     -21.8253 
         800     0.653331   0.00382616 -1.59672e-05     -21.8253 
         800     0.853332   0.00366894  9.38658e-06     -21.8253 
         800         1.08   0.00345118  3.80606e-05     -21.8253 
         800      1.33333   0.00312076    6.354e-05     -21.8253 
         800      1.61333    0.0026715  8.34713e-05     -21.8253 
         800         1.92   0.00218375  0.000100291     -21.8253 
         800      2.25333   0.00167491  0.000115201     -21.8253 
         800      2.61333   0.00113674   0.00012768     -21.8253 
         800            3  0.000579249  0.000136819     -21.8254 
         850            0            0            0     -16.7745 
         850     0.013333  1.56897e-05  2.61962e-07     -16.7745 
         850     0.053333  0.000220527  4.00655e-06     -16.7745 
         850         0.12  0.000254415  1.86259e-05     -16.7745 
         850     0.213332 -1.55565e-05  5.16018e-05     -16.7745 
         850     0.333332 -0.000488057  0.000105587     -16.7745 
         850         0.48 -0.000936865  0.000177374     -16.7745 
         850     0.653331  -0.00120779  0.000261761     -16.7745 
         850     0.853332  -0.00126877  0.000355685     -16.7745 
         850         1.08  -0.00114774  0.000458305     -16.7745 
         850      1.33333 -0.000916059  0.000567251     -16.7745 
         850      1.61333 -0.000692044  0.000676193     -16.7745 
         850         1.92 -0.000549171  0.000777391     -16.7745 
         850      2.25333 -0.000435861  0.000866411     -16.7745 
         850      2.61333 -0.000315782  0.000938498     -16.7745 
         850            3 -0.000191163  0.000988846     -16.7745 
         900            0            0            0     -11.7223 
         900     0.013333 -0.000233031  1.14215e-08     -11.7223 
         900     0.053333 -0.000598403  2.37136e-08     -11.7223 
         900         0.12  -0.00105578 -8.99421e-07     -11.7223 
         900     0.213332  -0.00141754 -5.63423e-06     -11.7223 
         900     0.333332  -0.00157939 -1.78786e-05     -11.7223 
         900         0.48  -0.00157123 -3.96524e-05     -11.7223 
         900     0.653331   -0.0015007 -7.02754e-05     -11.7223 
         900     0.853332  -0.00145142 -0.000107387     -11.7223 
         900         1.08  -0.00143176  -0.00014779     -11.7223 
         900      1.33333  -0.00138234 -0.000187364     -11.7223 
         900      1.61333  -0.00124709 -0.000222449     -11.7223 
         900         1.92  -0.00105257 -0.000251954     -11.7223 
         900      2.25333 -0.000845576 -0.000276884     -11.7223 
         900      2.61333 -0.000635429 -0.000296195     -11.7223 
         900            3 -0.000415911 -0.000308202     -11.7223 
         950            0            0            0     -6.66915 
         950     0.013333 -8.73734e-05 -8.68661e-08     -6.66915 
         950     0.053333 -4.01832e-05  -1.2978e-06     -6.66916 
         950         0.12  8.24122e-05 -5.81795e-06     -6.66916 
         950     0.213332  0.000287403  -1.5445e-05     -6.66916 
         950     0.333332  0.000510082 -3.02032e-05     -6.66916 
         950         0.48  0.000674803 -4.84553e-05     -6.66915 
         950     0.653331  0.000750859  -6.8332e-05     -6.66915 
         950     0.853332  0.000754147 -8.89652e-05     -6.66915 
         950         1.08  0.000707504 -0.000110609     -6.66915 
         950      1.33333    0.0006207 -0.000133832     -6.66915 
         950      1.61333  0.000508098 -0.000158244     -6.66915 
         950         1.92  0.000400679 -0.000182038     -6.66916 
         950      2.25333  0.000300475  -0.00020327     -6.66916 
         950      2.61333  0.000198054 -0.000220854     -6.66916 
         950            3  8.93955e-05 -0.000233926     -6.66917 
        1000            0            0            0     -1.61612 
        1000     0.013333  1.75109e-05 -6.37375e-08     -1.61612 
        1000     0.053333  0.000336499 -7.92287e-07     -1.61612 
        1000         0.12  0.000782586 -2.74442e-06     -1.61612 
        1000     0.213332   0.00122497  -4.5644e-06     -1.61612 
        1000     0.333332   0.00151561 -2.78128e-06     -1.61612 
        1000         0.48   0.00159614    5.968e-06     -1.61612 
        1000     0.653331   0.00152203  2.28835e-05     -1.61612 
        1000     0.853332   0.00138995  4.63975e-05     -1.61612 
        1000         1.08   0.00125154  7.33879e-05     -1.61612 
        1000      1.33333   0.00110406  0.000101219     -1.61612 
        1000      1.61333  0.000939457  0.000128632     -1.61612 
        1000         1.92  0.000764271  0.000155473     -1.61612 
        1000      2.25333  0.000579549  0.000181156     -1.61613 
        1000      2.61333  0.000382031  0.000204722     -1.61614 
        1000            3  0.000172871  0.000225019     -1.61615 
