Variables = x, y, u, v, p, uu, uv, vv

Zone, I=21600, F=POINT
         -70            0  1.13055e-19   6.7049e-22 -0.000544429 -9.40388e-14  1.47227e-15 -5.96377e-17 
         -70     0.000417 -2.85717e-09  1.62116e-11 -0.000544429   3.8161e-13  1.04916e-15 -3.95022e-17 
         -70     0.001671 -1.12561e-08  6.47949e-11 -0.000544429  6.51794e-12  2.22671e-16  1.99172e-16 
         -70     0.003762 -2.47093e-08  1.42968e-10 -0.000544429   3.1941e-11   3.6513e-16  1.21426e-15 
         -70     0.006687 -4.26531e-08  2.39982e-10 -0.000544429  9.76147e-11   3.4812e-15  4.08263e-15 
         -70      0.01045 -6.47789e-08  3.33187e-10 -0.000544429  2.29725e-10  1.05397e-14  1.08793e-14 
         -70     0.015048 -9.11123e-08  3.88577e-10 -0.000544429  4.56456e-10   1.6917e-14  2.57472e-14 
         -70     0.020484 -1.22051e-07  3.69208e-10 -0.000544429  8.05244e-10   3.5232e-15   5.6913e-14 
         -70     0.026753  -1.5803e-07  2.47428e-10 -0.000544429  1.29889e-09 -7.72938e-14  1.19715e-13 
         -70     0.033862 -1.99298e-07   1.2803e-11 -0.000544429  1.95429e-09 -3.21108e-13  2.41025e-13 
         -70     0.041803 -2.45573e-07 -3.33755e-10 -0.000544429  2.77822e-09 -8.92963e-13  4.64149e-13 
         -70     0.050579 -2.96404e-07  -8.0536e-10 -0.000544429  3.76852e-09  -2.0488e-12  8.55095e-13 
         -70     0.060198 -3.51757e-07 -1.45083e-09 -0.000544429   4.9138e-09 -4.14997e-12  1.50929e-12 
         -70     0.070646 -4.12235e-07 -2.29515e-09 -0.000544429  6.19086e-09 -7.65123e-12  2.55605e-12 
         -70     0.081937 -4.77492e-07 -3.03047e-09 -0.000544429  7.57205e-09 -1.30786e-11  4.17001e-12 
         -70     0.094057  -5.4697e-07 -3.77138e-09 -0.000544429  9.02063e-09  -2.1141e-11  6.56865e-12 
         -70     0.107021 -6.21208e-07 -4.95672e-09 -0.000544428  1.05003e-08 -3.21983e-11  1.00251e-11 
         -70     0.120813 -6.99583e-07 -5.29693e-09 -0.000544428  1.19712e-08 -4.68643e-11  1.48288e-11 
         -70      0.13545 -7.82043e-07 -4.33993e-09 -0.000544428  1.33989e-08 -6.57765e-11  2.13849e-11 
         -70     0.150914 -8.68484e-07 -2.17326e-09 -0.000544428  1.47493e-08 -8.91556e-11  3.01742e-11 
         -70     0.167213 -9.59071e-07  1.21045e-09 -0.000544428  1.59973e-08 -1.16978e-10  4.17561e-11 
         -70     0.184359 -1.05407e-06  6.62518e-09 -0.000544427  1.71241e-08 -1.49109e-10  5.67528e-11 
         -70      0.20233 -1.15357e-06  1.59863e-08 -0.000544426  1.81161e-08 -1.85334e-10  7.58389e-11 
         -70     0.221149   -1.258e-06  3.14181e-08 -0.000544425   1.8969e-08 -2.25388e-10  9.99399e-11 
         -70     0.240792 -1.36777e-06  5.17186e-08 -0.000544424  1.96818e-08 -2.68097e-10  1.30435e-10 
         -70     0.261284  -1.4859e-06  7.71367e-08 -0.000544421  2.02608e-08 -3.11773e-10  1.69964e-10 
         -70     0.282599 -1.60887e-06  1.13387e-07 -0.000544418  2.07107e-08 -3.56243e-10  2.10085e-10 
         -70     0.304763 -1.73872e-06  1.58495e-07 -0.000544413  2.10491e-08 -4.07806e-10  2.80448e-10 
         -70      0.32775 -1.87732e-06     2.11e-07 -0.000544407   2.1281e-08 -4.59741e-10  3.74117e-10 
         -70     0.351587 -2.02313e-06  2.64856e-07 -0.000544397  2.14142e-08 -5.09005e-10  4.88173e-10 
         -70     0.376246 -2.17103e-06  3.10348e-07 -0.000544385  2.14572e-08 -5.54852e-10   6.2198e-10 
         -70      0.40174 -2.31371e-06  3.36109e-07 -0.000544369   2.1418e-08 -5.97453e-10  7.75771e-10 
         -70     0.428086 -2.44254e-06  3.31339e-07 -0.000544352  2.13028e-08 -6.36054e-10  9.48388e-10 
         -70     0.455252 -2.54892e-06  2.88584e-07 -0.000544334  2.11151e-08  -6.6742e-10  1.13493e-09 
         -70     0.483271 -2.62627e-06  2.06423e-07 -0.000544319  2.08552e-08 -6.85387e-10  1.32635e-09 
         -70     0.512109 -2.67105e-06  9.19896e-08 -0.000544307  2.05224e-08 -6.81939e-10  1.50916e-09 
         -70     0.541801 -2.68399e-06 -3.82541e-08 -0.000544302  2.01174e-08 -6.51479e-10  1.66993e-09 
         -70     0.572311 -2.66968e-06 -1.58939e-07 -0.000544305  1.96513e-08 -5.99662e-10  1.80273e-09 
         -70     0.603676 -2.63473e-06 -2.40598e-07 -0.000544315  1.91554e-08 -5.58673e-10   1.9249e-09 
         -70     0.635857 -2.59641e-06 -2.42625e-07 -0.000544332  1.86749e-08 -4.07774e-10  1.69532e-09 
         -70     0.668875 -2.55752e-06 -2.23259e-07 -0.000544349  1.81513e-08 -2.90964e-10  1.65844e-09 
         -70     0.702748 -2.51352e-06 -1.95167e-07 -0.000544364  1.75522e-08  -2.0255e-10  1.71943e-09 
         -70     0.737438 -2.46186e-06 -1.62781e-07 -0.000544378  1.68803e-08 -1.33558e-10  1.83284e-09 
         -70     0.772984 -2.40071e-06  -1.2969e-07  -0.00054439  1.61386e-08   -7.712e-11  1.96493e-09 
         -70     0.809345 -2.32914e-06 -9.87414e-08   -0.0005444   1.5333e-08 -2.87411e-11  2.09294e-09 
         -70     0.846564 -2.24686e-06 -7.18885e-08 -0.000544406  1.44693e-08  1.41556e-11  2.20487e-09 
         -70     0.884597 -2.15448e-06 -5.03677e-08 -0.000544411  1.35561e-08  5.22978e-11  2.29742e-09 
         -70     0.923489 -2.05306e-06 -3.46424e-08 -0.000544413  1.26015e-08  8.51823e-11  2.37459e-09 
         -70     0.963194 -1.94438e-06 -2.46091e-08 -0.000544413  1.16167e-08  1.11397e-10  2.44476e-09 
         -70      1.00376 -1.83035e-06 -1.96557e-08  -0.00054441  1.06111e-08  1.29332e-10  2.51842e-09 
         -70      1.04514 -1.71333e-06 -1.88664e-08 -0.000544407  9.59749e-09  1.37638e-10   2.6049e-09 
         -70      1.08735 -1.59549e-06 -2.11594e-08 -0.000544402  8.58695e-09  1.35845e-10  2.71005e-09 
         -70      1.13042 -1.47882e-06 -2.54656e-08 -0.000544397  7.59082e-09  1.24726e-10  2.83396e-09 
         -70      1.17431 -1.36518e-06 -3.08501e-08 -0.000544392  6.62227e-09  1.06563e-10  2.96949e-09 
         -70      1.21905 -1.25571e-06 -3.66218e-08 -0.000544388  5.69207e-09   8.4986e-11  3.10297e-09 
         -70      1.26461 -1.15132e-06 -4.23213e-08 -0.000544384  4.81325e-09  6.45037e-11  3.21595e-09 
         -70      1.31103 -1.05217e-06 -4.76443e-08 -0.000544382  3.99684e-09   4.9238e-11  3.29102e-09 
         -70      1.35826 -9.58434e-07 -5.21551e-08 -0.000544381  3.25635e-09  4.10369e-11  3.32029e-09 
         -70      1.40635 -8.70114e-07 -5.48395e-08  -0.00054438  2.60465e-09  3.63976e-11   3.3196e-09 
         -70      1.45525 -7.88155e-07 -5.33464e-08 -0.000544378  2.05832e-09  2.22171e-11  3.34828e-09 
         -70      1.50498 -7.14943e-07 -4.29232e-08 -0.000544372  1.63612e-09 -3.01127e-11  3.53662e-09 
         -70      1.55558 -6.43737e-07 -4.56918e-08 -0.000544368  1.24174e-09 -1.07047e-11  3.43902e-09 
         -70      1.60699 -5.74099e-07  -4.8334e-08 -0.000544363  9.59257e-10  -1.7815e-11  3.44326e-09 
         -70      1.65927  -5.0635e-07 -5.03524e-08 -0.000544359  7.68255e-10 -2.31543e-11  3.43328e-09 
         -70      1.71235 -4.40829e-07 -5.18436e-08 -0.000544354  6.55943e-10 -2.68806e-11  3.40989e-09 
         -70      1.76629 -3.77701e-07 -5.29007e-08 -0.000544349  6.09593e-10 -2.91682e-11  3.37394e-09 
         -70      1.82104 -3.17269e-07 -5.36046e-08 -0.000544344  6.17241e-10 -3.01875e-11  3.32638e-09 
         -70      1.87666 -2.59667e-07 -5.40293e-08 -0.000544338  6.67535e-10 -3.01143e-11  3.26814e-09 
         -70      1.93309 -2.05151e-07 -5.42378e-08 -0.000544333  7.49826e-10 -2.91226e-11  3.20031e-09 
         -70      1.99034 -1.53847e-07 -5.42845e-08 -0.000544327  8.54399e-10 -2.73834e-11  3.12389e-09 
         -70      2.04847 -1.05861e-07 -5.42138e-08 -0.000544321  9.72516e-10 -2.50611e-11  3.03991e-09 
         -70       2.1074 -6.13556e-08 -5.40613e-08 -0.000544315   1.0962e-09 -2.23171e-11  2.94956e-09 
         -70      2.16721 -2.03537e-08 -5.38537e-08 -0.000544309   1.2188e-09 -1.92974e-11   2.8538e-09 
         -70      2.22781  1.70547e-08 -5.36103e-08 -0.000544302  1.33442e-09 -1.61435e-11  2.75384e-09 
         -70      2.28928  5.09096e-08 -5.33425e-08 -0.000544295  1.43853e-09 -1.29755e-11  2.65058e-09 
         -70      2.35156  8.11987e-08 -5.30565e-08 -0.000544287  1.52741e-09 -9.90591e-12  2.54518e-09 
         -70       2.4147  1.08024e-07 -5.27531e-08  -0.00054428  1.59863e-09 -7.02254e-12  2.43847e-09 
         -70      2.47865  1.31457e-07 -5.24298e-08 -0.000544271  1.65057e-09 -4.40179e-12  2.33149e-09 
         -70      2.54347  1.51662e-07 -5.20813e-08 -0.000544263  1.68273e-09 -2.09382e-12  2.22492e-09 
         -70      2.60909   1.6879e-07 -5.17021e-08 -0.000544254  1.69537e-09 -1.34689e-13  2.11967e-09 
         -70      2.67554   1.8306e-07 -5.12863e-08 -0.000544245  1.68961e-09  1.46411e-12  2.01632e-09 
         -70      2.74287  1.94713e-07 -5.08298e-08 -0.000544236  1.66718e-09  2.70984e-12  1.91536e-09 
         -70        2.811  2.03997e-07 -5.03316e-08 -0.000544226  1.63042e-09  3.62592e-12   1.8174e-09 
         -70         2.88  2.11206e-07 -4.97935e-08 -0.000544215  1.58196e-09  4.25456e-12  1.72266e-09 
         -70      2.94979  2.16628e-07 -4.92222e-08 -0.000544205  1.52479e-09   4.6491e-12   1.6315e-09 
         -70      3.02047  2.20572e-07 -4.86272e-08 -0.000544194   1.4618e-09  4.87281e-12  1.54396e-09 
         -70      3.09194  2.23331e-07  -4.8023e-08 -0.000544182  1.39593e-09  4.99125e-12  1.46021e-09 
         -70      3.16429  2.25195e-07 -4.74248e-08  -0.00054417  1.32961e-09  5.06644e-12   1.3801e-09 
         -70      3.23743  2.26416e-07 -4.68495e-08 -0.000544158  1.26492e-09  5.14737e-12  1.30365e-09 
         -70       3.3114  2.27208e-07   -4.631e-08 -0.000544146   1.2031e-09   5.2598e-12  1.23069e-09 
         -70      3.38626  2.27723e-07 -4.58121e-08 -0.000544133   1.1445e-09  5.39351e-12  1.16104e-09 
         -70      3.46191  2.28028e-07 -4.53493e-08 -0.000544119  1.08847e-09  5.48698e-12  1.09471e-09 
         -70      3.53844  2.28087e-07 -4.48939e-08 -0.000544105  1.03299e-09  5.41023e-12  1.03161e-09 
         -70      3.61576  2.27733e-07 -4.43893e-08 -0.000544091   9.7476e-10  4.94428e-12  9.71975e-10 
         -70      3.69396  2.26634e-07 -4.37368e-08 -0.000544076  9.08849e-10  3.75655e-12  9.16103e-10 
         -70      3.77295  2.24788e-07 -4.29344e-08  -0.00054406  8.56718e-10  3.24734e-12   8.6244e-10 
         -70      3.85283  2.23468e-07 -4.23346e-08 -0.000544044  8.06542e-10  3.11477e-12  8.12187e-10 
         -70      3.93349  2.21973e-07  -4.1745e-08 -0.000544028  7.59012e-10  2.97644e-12    7.645e-10 
         -70      4.01504  2.20378e-07 -4.12066e-08 -0.000544011  7.13986e-10  2.80453e-12  7.19306e-10 
         -70      4.09737  2.18743e-07 -4.07523e-08 -0.000543994  6.71431e-10  2.58406e-12  6.76617e-10 
         -70      4.18054  2.17096e-07 -4.02313e-08 -0.000543976  6.31097e-10  2.27492e-12   6.3636e-10 
         -70       4.2646  2.15427e-07  -3.9628e-08 -0.000543957  5.92953e-10  1.96042e-12  5.98382e-10 
         -70      4.34945  2.13746e-07  -3.9008e-08 -0.000543938  5.56999e-10  1.66382e-12  5.62583e-10 
         -70      4.43518  2.12049e-07 -3.83895e-08 -0.000543919  5.23105e-10  1.38254e-12  5.28812e-10 
         -70      4.52169  2.10334e-07 -3.77861e-08 -0.000543898  4.91218e-10  1.11721e-12  4.97002e-10 
         -70      4.60909   2.0859e-07 -3.72046e-08 -0.000543878  4.61203e-10  8.69112e-13  4.67011e-10 
         -70      4.69728  2.06814e-07 -3.66477e-08 -0.000543856  4.32997e-10   6.4032e-13  4.38777e-10 
         -70      4.78636     2.05e-07 -3.61122e-08 -0.000543834  4.06469e-10  4.31641e-13   4.1217e-10 
         -70      4.87621  2.03152e-07 -3.55926e-08 -0.000543812  3.81554e-10  2.43024e-13  3.87134e-10 
         -70      4.96691  2.01277e-07 -3.50795e-08 -0.000543789  3.58144e-10  7.22994e-14   3.6357e-10 
         -70      5.05849  1.99384e-07 -3.45621e-08 -0.000543765  3.36136e-10 -8.43586e-14   3.4139e-10 
         -70      5.15086  1.97492e-07 -3.40307e-08 -0.000543741  3.15473e-10 -2.31706e-13  3.20549e-10 
         -70      5.24411  1.95611e-07 -3.34763e-08 -0.000543716  2.96053e-10  -3.7502e-13  3.00957e-10 
         -70      5.33815  1.93752e-07 -3.28951e-08  -0.00054369  2.77826e-10 -5.17685e-13  2.82569e-10 
         -70      5.43308  1.91902e-07 -3.22887e-08 -0.000543664  2.60702e-10  -6.5942e-13  2.65299e-10 
         -70      5.52879  1.90031e-07 -3.16696e-08 -0.000543637  2.44639e-10 -7.92276e-13  2.49092e-10 
         -70       5.6254  1.88063e-07  -3.1062e-08  -0.00054361  2.29558e-10 -8.96976e-13  2.33846e-10 
         -70      5.72278  1.85867e-07 -3.05078e-08 -0.000543581  2.15413e-10 -9.36883e-13  2.19473e-10 
         -70      5.82099  1.83235e-07 -3.00692e-08 -0.000543552   2.0213e-10 -8.51787e-13  2.05836e-10 
         -70      5.92011  1.81933e-07 -2.94202e-08 -0.000543523   1.8981e-10 -1.02826e-12  1.93337e-10 
         -70         6.02  1.80269e-07 -2.88977e-08 -0.000543492  1.78227e-10 -1.12664e-12  1.81518e-10 
         -70      6.12078  1.78293e-07 -2.84334e-08 -0.000543461  1.67336e-10 -1.16301e-12  1.70357e-10 
         -70      6.22234  1.76205e-07 -2.79602e-08  -0.00054343  1.57127e-10 -1.17158e-12  1.59876e-10 
         -70       6.3248   1.7412e-07 -2.74492e-08 -0.000543397  1.47559e-10 -1.17301e-12   1.5005e-10 
         -70      6.42803  1.72096e-07 -2.69007e-08 -0.000543364  1.38608e-10 -1.17748e-12  1.40862e-10 
         -70      6.53216  1.70139e-07 -2.63306e-08  -0.00054333  1.30226e-10 -1.18767e-12  1.32264e-10 
         -70      6.63707  1.68239e-07 -2.57625e-08 -0.000543295  1.22382e-10 -1.20155e-12   1.2422e-10 
         -70      6.74287  1.66367e-07 -2.52173e-08 -0.000543259  1.15032e-10 -1.21483e-12  1.16677e-10 
         -70      6.84945  1.64499e-07 -2.47085e-08 -0.000543223  1.08149e-10 -1.22298e-12    1.096e-10 
         -70      6.95686  1.62619e-07 -2.42361e-08 -0.000543186  1.01698e-10 -1.22282e-12  1.02947e-10 
         -70      7.06517  1.60726e-07 -2.37858e-08 -0.000543148  9.56479e-11 -1.21338e-12  9.66861e-11 
         -70      7.17426  1.58836e-07 -2.33315e-08 -0.000543109  8.99834e-11 -1.19608e-12  9.08028e-11 
         -70      7.28424  1.56969e-07 -2.28394e-08  -0.00054307  8.46763e-11   -1.174e-12  8.52771e-11 
         -70        7.395  1.55142e-07 -2.22796e-08 -0.000543029  7.97121e-11 -1.15016e-12  8.01076e-11 
         -70      7.50666  1.53346e-07 -2.16395e-08 -0.000542988  7.50608e-11 -1.12453e-12  7.52818e-11 
         -70      7.61908  1.51452e-07 -2.12731e-08 -0.000542946  7.06638e-11  -1.0787e-12  7.07683e-11 
         -70      7.73241  1.49522e-07  -2.0946e-08 -0.000542903  6.65245e-11  -1.0361e-12  6.65447e-11 
         -70      7.84651  1.47558e-07 -2.04983e-08  -0.00054286  6.26506e-11 -9.94063e-13  6.25726e-11 
         -70      7.96145  1.45927e-07 -1.99021e-08 -0.000542815  5.90609e-11  -9.7209e-13  5.88217e-11 
         -70      8.07729   1.4472e-07 -1.94464e-08  -0.00054277  5.57253e-11 -9.73059e-13  5.52962e-11 
         -70      8.19389  1.43059e-07 -1.90662e-08 -0.000542723  5.25743e-11  -9.2854e-13  5.20075e-11 
         -70      8.31141  1.41194e-07 -1.87015e-08 -0.000542676  4.96051e-11 -8.66403e-13  4.89279e-11 
         -70      8.42969  1.39291e-07 -1.83246e-08 -0.000542628   4.6818e-11 -8.03071e-13  4.60416e-11 
         -70      8.54887  1.37352e-07 -1.78385e-08 -0.000542579  4.41935e-11  -7.4987e-13  4.33336e-11 
         -70      8.66882  1.35447e-07 -1.73291e-08 -0.000542529  4.17293e-11 -7.06047e-13  4.07913e-11 
         -70      8.78968  1.33629e-07 -1.68675e-08 -0.000542478  3.94153e-11 -6.67196e-13  3.84007e-11 
         -70      8.91131   1.3188e-07 -1.64422e-08 -0.000542427  3.72432e-11 -6.30928e-13  3.61555e-11 
         -70      9.03384  1.30174e-07 -1.60365e-08 -0.000542374  3.52002e-11 -5.94107e-13  3.40453e-11 
         -70      9.15713  1.28484e-07 -1.56372e-08  -0.00054232  3.32796e-11 -5.53949e-13  3.20652e-11 
         -70      9.28126  1.26789e-07 -1.52376e-08 -0.000542266  3.14717e-11  -5.0862e-13   3.0207e-11 
         -70       9.4063  1.25075e-07  -1.4839e-08  -0.00054221  2.97685e-11 -4.57851e-13   2.8463e-11 
         -70       9.5321  1.23348e-07 -1.44498e-08 -0.000542154  2.81659e-11 -4.03368e-13  2.68286e-11 
         -70      9.65882  1.21626e-07 -1.40781e-08 -0.000542097  2.66574e-11 -3.48731e-13  2.52948e-11 
         -70      9.78629   1.1995e-07 -1.37229e-08 -0.000542038  2.52411e-11 -2.99338e-13   2.3856e-11 
         -70      9.91468   1.1838e-07 -1.33579e-08 -0.000541979  2.39133e-11 -2.61565e-13  2.25027e-11 
         -70      10.0438  1.16996e-07 -1.29128e-08 -0.000541919  2.26748e-11 -2.41984e-13   2.1228e-11 
         -70      10.1739  1.15729e-07 -1.24672e-08 -0.000541858  2.15118e-11 -2.31961e-13  2.00277e-11 
         -70      10.3047  1.14195e-07 -1.22597e-08 -0.000541796  2.04006e-11 -2.02844e-13  1.89012e-11 
         -70      10.4363    1.126e-07 -1.19359e-08 -0.000541732  1.93505e-11 -1.69858e-13  1.78403e-11 
         -70      10.5689  1.10954e-07 -1.15559e-08 -0.000541668  1.83574e-11 -1.34169e-13  1.68412e-11 
         -70      10.7022   1.0927e-07 -1.11606e-08 -0.000541603  1.74197e-11 -9.68218e-14  1.59017e-11 
         -70      10.8365  1.07552e-07 -1.07725e-08 -0.000541537  1.65334e-11 -5.83073e-14  1.50176e-11 
         -70      10.9715  1.05798e-07 -1.04004e-08  -0.00054147  1.56964e-11 -1.84354e-14  1.41874e-11 
         -70      11.1074  1.03984e-07   -1.004e-08 -0.000541401  1.49037e-11  2.41837e-14  1.34076e-11 
         -70      11.2441  1.02607e-07 -9.83769e-09 -0.000541332  1.41593e-11  4.04484e-14  1.26745e-11 
         -70      11.3816  1.01182e-07 -9.60335e-09 -0.000541262  1.34594e-11  6.01861e-14  1.19805e-11 
         -70        11.52  9.97177e-08  -9.3233e-09 -0.000541191     1.28e-11  8.19961e-14  1.13267e-11 
         -70      11.6592  9.82453e-08 -9.00598e-09 -0.000541118  1.21761e-11  1.03516e-13  1.07108e-11 
         -70      11.7993  9.67779e-08 -8.66429e-09 -0.000541045  1.15836e-11  1.23648e-13  1.01304e-11 
         -70      11.9401  9.53215e-08 -8.31411e-09 -0.000540971  1.10204e-11  1.42109e-13  9.58442e-12 
         -70      12.0819  9.38745e-08 -7.97071e-09 -0.000540895  1.04842e-11  1.59149e-13  9.07016e-12 
         -70      12.2244  9.24379e-08 -7.64834e-09 -0.000540819  9.97457e-12  1.75164e-13  8.58625e-12 
         -70      12.3678  9.10119e-08 -7.35664e-09 -0.000540742  9.49041e-12  1.90533e-13  8.13012e-12 
         -70       12.512  8.96026e-08 -7.10035e-09 -0.000540663  9.03216e-12  2.05396e-13  7.70038e-12 
         -70      12.6571  8.82142e-08 -6.87626e-09 -0.000540584  8.59904e-12   2.1966e-13  7.29465e-12 
         -70       12.803  8.68517e-08 -6.67294e-09 -0.000540503  8.19085e-12  2.32972e-13  6.91181e-12 
         -70      12.9498  8.55073e-08 -6.46845e-09 -0.000540422   7.8054e-12  2.44944e-13  6.55003e-12 
         -70      13.0973  8.41576e-08 -6.23031e-09 -0.000540339  7.43986e-12  2.55384e-13  6.20886e-12 
         -70      13.2457   8.2745e-08 -5.91404e-09 -0.000540255  7.08843e-12  2.64782e-13  5.88779e-12 
         -70       13.395  8.12444e-08 -5.59134e-09  -0.00054017  6.74893e-12  2.75802e-13  5.58622e-12 
         -70       13.545  7.99427e-08 -5.50484e-09 -0.000540085   6.4418e-12  2.88319e-13   5.3005e-12 
         -70       13.696  7.86835e-08 -5.29629e-09 -0.000539998  6.14961e-12  2.97599e-13  5.03015e-12 
         -70      13.8477  7.74571e-08 -5.03032e-09  -0.00053991  5.87216e-12  3.04596e-13  4.77489e-12 
         -70      14.0004  7.62525e-08  -4.7512e-09 -0.000539821  5.60847e-12  3.10093e-13  4.53377e-12 
         -70      14.1537  7.50638e-08 -4.48719e-09 -0.000539731  5.35817e-12  3.14679e-13  4.30637e-12 
         -70      14.3081  7.38835e-08 -4.25242e-09  -0.00053964  5.12025e-12  3.18794e-13  4.09167e-12 
         -70      14.4631  7.27087e-08  -4.0511e-09 -0.000539548  4.89424e-12  3.22723e-13  3.88916e-12 
         -70       14.619  7.15359e-08 -3.87943e-09 -0.000539455  4.67926e-12  3.26637e-13  3.69795e-12 
         -70      14.7758  7.03626e-08 -3.72873e-09 -0.000539361  4.47446e-12  3.30598e-13   3.5172e-12 
         -70      14.9334  6.91896e-08 -3.58809e-09 -0.000539266  4.27937e-12  3.34578e-13  3.34642e-12 
         -70      15.0919  6.80162e-08 -3.44596e-09 -0.000539169   4.0931e-12   3.3849e-13  3.18473e-12 
         -70      15.2511  6.68448e-08  -3.2927e-09 -0.000539072  3.91528e-12   3.4219e-13  3.03173e-12 
         -70      15.4113  6.56763e-08 -3.12138e-09 -0.000538974  3.74516e-12  3.45516e-13  2.88669e-12 
         -70      15.5722  6.45144e-08 -2.92957e-09 -0.000538875  3.58253e-12  3.48293e-13  2.74932e-12 
         -70      15.7341  6.33609e-08 -2.71919e-09 -0.000538774  3.42685e-12  3.50361e-13  2.61904e-12 
         -70      15.8966  6.22205e-08  -2.4974e-09 -0.000538673  3.27811e-12  3.51587e-13  2.49571e-12 
         -70      16.0602  6.10953e-08 -2.27519e-09  -0.00053857  3.13606e-12  3.51892e-13   2.3789e-12 
         -70      16.2244  5.99903e-08 -2.06713e-09 -0.000538467  3.00092e-12  3.51261e-13  2.26856e-12 
         -70      16.3895  5.89083e-08 -1.88864e-09 -0.000538363  2.87285e-12  3.49765e-13  2.16446e-12 
         -70      16.5555  5.78521e-08  -1.7537e-09 -0.000538257  2.75216e-12  3.47574e-13  2.06641e-12 
         -70      16.7223  5.68263e-08 -1.67148e-09  -0.00053815  2.63957e-12  3.44976e-13   1.9744e-12 
         -70        16.89  5.58326e-08 -1.64132e-09 -0.000538043  2.53568e-12  3.42383e-13  1.88814e-12 
         -70      17.0584  5.48749e-08 -1.64761e-09 -0.000537934  2.44155e-12  3.40353e-13  1.80752e-12 
         -70      17.2278  5.39706e-08 -1.51901e-09 -0.000537825   2.3416e-12  3.38261e-13  1.72805e-12 
         -70      17.3979  5.30024e-08 -1.25697e-09 -0.000537714  2.24077e-12  3.36591e-13  1.65212e-12 
         -70      17.5689  5.17586e-08  -9.4455e-10 -0.000537603  2.14434e-12  3.41019e-13  1.57976e-12 
         -70      17.7407  5.06864e-08 -8.52438e-10  -0.00053749  2.05284e-12  3.40442e-13  1.51533e-12 
         -70      17.9133  5.00072e-08 -9.25122e-10 -0.000537377  1.97116e-12  3.33168e-13  1.45403e-12 
         -70      18.0869  4.92204e-08 -8.78093e-10 -0.000537262   1.8988e-12  3.28644e-13   1.3946e-12 
         -70      18.2611  4.83647e-08 -7.46764e-10 -0.000537147   1.8324e-12  3.25788e-13  1.33785e-12 
         -70      18.4364  4.74866e-08 -5.85326e-10 -0.000537031  1.76766e-12   3.2263e-13  1.28067e-12 
         -70      18.6123  4.66353e-08 -4.68193e-10 -0.000536913  1.70029e-12  3.20261e-13  1.22641e-12 
         -70      18.7892   4.5777e-08 -3.47751e-10 -0.000536795  1.63535e-12  3.18074e-13  1.17571e-12 
         -70      18.9669  4.49146e-08 -2.32018e-10 -0.000536676  1.57277e-12  3.15966e-13  1.12843e-12 
         -70      19.1454  4.40519e-08 -1.25567e-10 -0.000536556  1.51234e-12  3.13817e-13  1.08426e-12 
         -70      19.3247  4.31961e-08 -3.06608e-11 -0.000536434  1.45406e-12  3.11515e-13  1.04292e-12 
         -70       19.505   4.2353e-08  5.26859e-11 -0.000536312  1.39784e-12  3.08955e-13  1.00405e-12 
         -70      19.6859    4.153e-08  1.25714e-10 -0.000536189  1.34373e-12  3.06065e-13  9.67356e-13 
         -70      19.8677  4.07316e-08  1.90778e-10 -0.000536065  1.29177e-12  3.02802e-13  9.32519e-13 
         -70      20.0505  3.99606e-08  2.50706e-10 -0.000535941  1.24197e-12  2.99164e-13  8.99251e-13 
         -70       20.234  3.92189e-08  3.08291e-10 -0.000535815  1.19448e-12  2.95195e-13  8.67378e-13 
         -70      20.4184  3.85037e-08  3.66165e-10 -0.000535688  1.14933e-12  2.90974e-13   8.3671e-13 
         -70      20.6035  3.78117e-08  4.26203e-10 -0.000535561  1.10665e-12  2.86626e-13  8.07195e-13 
         -70      20.7896  3.71352e-08  4.89559e-10 -0.000535432  1.06645e-12  2.82294e-13  7.78778e-13 
         -70      20.9765  3.64666e-08  5.56195e-10 -0.000535303  1.02878e-12  2.78147e-13   7.5153e-13 
         -70      21.1642  3.57952e-08  6.25094e-10 -0.000535173  9.93566e-13  2.74341e-13  7.25506e-13 
         -70      21.3527  3.51124e-08  6.93937e-10 -0.000535042  9.60708e-13  2.71015e-13  7.00856e-13 
         -70      21.5421  3.44095e-08  7.59482e-10  -0.00053491  9.29956e-13  2.68247e-13  6.77692e-13 
         -70      21.7323  3.36815e-08  8.17628e-10 -0.000534777  9.00922e-13  2.66026e-13  6.56103e-13 
         -70      21.9233  3.29301e-08  8.63642e-10 -0.000534644   8.7311e-13  2.64215e-13  6.36157e-13 
         -70      22.1153  3.21635e-08   8.9282e-10 -0.000534509  8.45756e-13  2.62491e-13  6.17757e-13 
         -70       22.308  3.14034e-08   9.0086e-10 -0.000534374  8.17927e-13    2.603e-13  6.00689e-13 
         -70      22.5016  3.06847e-08   8.8472e-10 -0.000534238  7.88351e-13  2.56781e-13  5.84459e-13 
         -70      22.6959  3.00636e-08  8.43471e-10 -0.000534101  7.55506e-13  2.50713e-13    5.683e-13 
         -70      22.8912  2.95657e-08  8.22228e-10 -0.000533964  7.24449e-13  2.44673e-13  5.53514e-13 
         -70      23.0872  2.91088e-08  8.57324e-10 -0.000533826  7.07606e-13  2.40244e-13  5.38975e-13 
         -70      23.2841  2.86754e-08  9.02014e-10 -0.000533686  6.89137e-13   2.3636e-13  5.24607e-13 
         -70      23.4819  2.82349e-08  9.50602e-10 -0.000533546  6.69382e-13  2.32883e-13  5.10605e-13 
         -70      23.6804  2.77699e-08  9.97812e-10 -0.000533406  6.48764e-13  2.29704e-13  4.97142e-13 
         -70      23.8799  2.72723e-08  1.03923e-09 -0.000533264  6.27678e-13  2.26728e-13  4.84318e-13 
         -70      24.0801  2.67427e-08  1.07132e-09 -0.000533122  6.06566e-13  2.23883e-13  4.72218e-13 
         -70      24.2813  2.61869e-08  1.09183e-09 -0.000532979  5.85795e-13  2.21107e-13  4.60859e-13 
         -70      24.4831  2.56155e-08  1.09985e-09 -0.000532836  5.65736e-13   2.1836e-13  4.50248e-13 
         -70       24.686    2.504e-08  1.09612e-09 -0.000532691  5.46656e-13  2.15611e-13  4.40335e-13 
         -70      24.8895   2.4473e-08   1.0832e-09 -0.000532547  5.28794e-13  2.12849e-13  4.31066e-13 
         -70       25.094  2.39244e-08  1.06558e-09 -0.000532401  5.12271e-13  2.10078e-13  4.22344e-13 
         -70      25.2992  2.34022e-08  1.04995e-09 -0.000532254  4.97168e-13  2.07328e-13  4.14082e-13 
         -70      25.5052  2.29085e-08  1.04525e-09 -0.000532107  4.83461e-13  2.04652e-13  4.06173e-13 
         -70      25.7123  2.24396e-08  1.06288e-09  -0.00053196  4.71059e-13  2.02136e-13  3.98517e-13 
         -70        25.92  2.19857e-08  1.11669e-09 -0.000531811   4.5984e-13  1.99912e-13  3.91046e-13 
         -70      26.1287  2.15277e-08  1.22329e-09 -0.000531662   4.4962e-13  1.98156e-13  3.83709e-13 
         -70       26.338  2.11737e-08  1.23663e-09 -0.000531513  4.36489e-13  1.94569e-13  3.76862e-13 
         -70      26.5484   2.0863e-08  1.13593e-09 -0.000531362  4.21841e-13  1.90121e-13  3.70964e-13 
         -70      26.7595  2.04629e-08  1.06892e-09 -0.000531212  4.08918e-13   1.8664e-13  3.65152e-13 
         -70      26.9715  1.99881e-08  1.03417e-09  -0.00053106  3.97342e-13  1.83993e-13  3.59347e-13 
         -70      27.1842  1.94595e-08  1.02709e-09 -0.000530908  3.86786e-13  1.82018e-13  3.53531e-13 
         -70      27.3978  1.89009e-08  1.04067e-09 -0.000530755   3.7694e-13   1.8052e-13  3.47726e-13 
         -70      27.6123  1.83379e-08   1.0665e-09 -0.000530602  3.67534e-13  1.79292e-13  3.41985e-13 
         -70      27.8276  1.77973e-08  1.09563e-09 -0.000530448  3.58368e-13  1.78126e-13  3.36398e-13 
         -70      28.0438  1.73024e-08  1.11974e-09 -0.000530294  3.49278e-13  1.76823e-13  3.31052e-13 
         -70      28.2607  1.68735e-08  1.13201e-09 -0.000530139  3.40189e-13  1.75217e-13  3.26043e-13 
         -70      28.4786  1.65224e-08  1.12832e-09 -0.000529984  3.31081e-13  1.73181e-13  3.21437e-13 
         -70      28.6972  1.62518e-08  1.10837e-09 -0.000529828  3.22038e-13  1.70661e-13  3.17275e-13 
         -70      28.9167    1.605e-08  1.07677e-09 -0.000529671  3.13217e-13  1.67681e-13   3.1353e-13 
         -70       29.137  1.58889e-08  1.04433e-09 -0.000529514  3.04893e-13  1.64381e-13  3.10109e-13 
         -70      29.3582  1.57186e-08  1.02923e-09 -0.000529357  2.97429e-13  1.61028e-13  3.06807e-13 
         -70      29.5801  1.54642e-08  1.05834e-09 -0.000529199  2.91318e-13  1.58056e-13  3.03301e-13 
         -70      29.8029  1.49907e-08  1.03424e-09  -0.00052904  2.89049e-13  1.56463e-13  3.00955e-13 
         -70      30.0266  1.45017e-08  8.46129e-10 -0.000528882  2.82187e-13  1.55884e-13   2.9809e-13 
         -70      30.2511  1.41688e-08  8.20591e-10 -0.000528722   2.7337e-13  1.54155e-13  2.94883e-13 
         -70      30.4765  1.38922e-08  8.56439e-10 -0.000528562  2.63967e-13  1.51897e-13  2.91575e-13 
         -70      30.7026  1.36117e-08  8.92246e-10 -0.000528402   2.5494e-13  1.49532e-13  2.88359e-13 
         -70      30.9297  1.32968e-08  8.97514e-10 -0.000528242   2.4686e-13  1.47308e-13   2.8536e-13 
         -70      31.1574  1.29406e-08  8.64416e-10 -0.000528081  2.40007e-13  1.45344e-13  2.82657e-13 
         -70      31.3862  1.25519e-08   8.0036e-10 -0.000527919  2.34394e-13   1.4365e-13  2.80271e-13 
         -70      31.6156  1.21498e-08  7.21515e-10 -0.000527757  2.29856e-13  1.42169e-13   2.7818e-13 
         -70      31.8459  1.17572e-08  6.46876e-10 -0.000527595  2.26081e-13  1.40798e-13   2.7632e-13 
         -70      32.0772  1.13961e-08  5.93675e-10 -0.000527432  2.22685e-13  1.39415e-13  2.74598e-13 
         -70      32.3092  1.10848e-08   5.7385e-10 -0.000527269  2.19265e-13  1.37907e-13  2.72904e-13 
         -70      32.5421  1.08331e-08  5.91419e-10 -0.000527106  2.15444e-13  1.36182e-13  2.71121e-13 
         -70      32.7757  1.06418e-08  6.41411e-10 -0.000526942   2.1094e-13  1.34194e-13   2.6915e-13 
         -70      33.0103  1.05007e-08  7.10171e-10 -0.000526778  2.05595e-13   1.3195e-13  2.66917e-13 
         -70      33.2456  1.03898e-08  7.76881e-10 -0.000526614  1.99452e-13  1.29528e-13   2.6441e-13 
         -70      33.4819  1.02802e-08  8.17177e-10 -0.000526449  1.92769e-13  1.27071e-13  2.61689e-13 
         -70      33.7189  1.01377e-08  8.07948e-10 -0.000526285  1.86097e-13  1.24801e-13  2.58929e-13 