Variables = x, y, u, v, p

Zone, I=15600, F=POINT
         -50            0           -0           -0  -0.00591819 
         -50     0.000417 -2.00773e-06  1.31633e-10  -0.00591819 
         -50     0.001671 -7.98793e-06  -7.5701e-10   -0.0059182 
         -50     0.003762 -1.77695e-05  -6.5212e-09   -0.0059182 
         -50     0.006687 -3.10584e-05 -2.35488e-08   -0.0059182 
         -50      0.01045 -4.74905e-05 -6.07834e-08  -0.00591821 
         -50     0.015048 -6.65776e-05 -1.29594e-07  -0.00591821 
         -50     0.020484 -8.77766e-05 -2.43831e-07  -0.00591822 
         -50     0.026753 -0.000110447 -4.19476e-07  -0.00591823 
         -50     0.033862 -0.000133944 -6.75005e-07  -0.00591823 
         -50     0.041803 -0.000157539 -1.03039e-06  -0.00591824 
         -50     0.050579 -0.000180528 -1.50772e-06  -0.00591825 
         -50     0.060198 -0.000202221 -2.13108e-06  -0.00591827 
         -50     0.070646 -0.000221906 -2.92433e-06  -0.00591828 
         -50     0.081937 -0.000238975 -3.91424e-06  -0.00591829 
         -50     0.094057 -0.000252836 -5.12587e-06   -0.0059183 
         -50     0.107021 -0.000263016  -6.5873e-06  -0.00591832 
         -50     0.120813 -0.000269107 -8.32337e-06  -0.00591833 
         -50      0.13545 -0.000270828 -1.03627e-05  -0.00591834 
         -50     0.150914 -0.000268003 -1.27287e-05  -0.00591836 
         -50     0.167213 -0.000260582 -1.54481e-05  -0.00591837 
         -50     0.184359 -0.000248624 -1.85479e-05  -0.00591839 
         -50      0.20233 -0.000232332 -2.20481e-05   -0.0059184 
         -50     0.221149 -0.000211988 -2.59759e-05  -0.00591841 
         -50     0.240792 -0.000188028 -3.03475e-05  -0.00591842 
         -50     0.261284 -0.000160924  -3.5187e-05  -0.00591843 
         -50     0.282599 -0.000131295 -4.05041e-05  -0.00591844 
         -50     0.304763 -9.97537e-05 -4.63174e-05  -0.00591845 
         -50      0.32775 -6.70292e-05 -5.26282e-05  -0.00591846 
         -50     0.351587 -3.38006e-05 -5.94481e-05  -0.00591847 
         -50     0.376246   -8.252e-07 -6.67695e-05  -0.00591849 
         -50      0.40174  3.12197e-05 -7.45936e-05   -0.0059185 
         -50     0.428086  6.17031e-05 -8.29208e-05  -0.00591852 
         -50     0.455252  9.00056e-05 -9.17332e-05  -0.00591854 
         -50     0.483271  0.000115668 -0.000101031  -0.00591856 
         -50     0.512109   0.00013827 -0.000110788  -0.00591858 
         -50     0.541801  0.000157568 -0.000120999   -0.0059186 
         -50     0.572311  0.000173392 -0.000131626  -0.00591863 
         -50     0.603676  0.000185735 -0.000142654  -0.00591866 
         -50     0.635857  0.000194674 -0.000154035  -0.00591869 
         -50     0.668875  0.000200404 -0.000165738  -0.00591872 
         -50     0.702748  0.000203204 -0.000177727  -0.00591876 
         -50     0.737438  0.000203406 -0.000189944   -0.0059188 
         -50     0.772984  0.000201373 -0.000202355  -0.00591885 
         -50     0.809345  0.000197476 -0.000214897   -0.0059189 
         -50     0.846564  0.000192067 -0.000227536  -0.00591895 
         -50     0.884597  0.000185482 -0.000240208  -0.00591902 
         -50     0.923489  0.000178003 -0.000252878  -0.00591908 
         -50     0.963194  0.000169881 -0.000265483  -0.00591916 
         -50      1.00376  0.000161302 -0.000277991  -0.00591925 
         -50      1.04514  0.000152427 -0.000290339  -0.00591934 
         -50      1.08735  0.000143364 -0.000302489  -0.00591944 
         -50      1.13042  0.000134192 -0.000314403  -0.00591955 
         -50      1.17431  0.000124988  -0.00032602  -0.00591968 
         -50      1.21905  0.000115795  -0.00033731  -0.00591981 
         -50      1.26461  0.000106673 -0.000348214  -0.00591996 
         -50      1.31103  9.76544e-05 -0.000358704  -0.00592012 
         -50      1.35826  8.87876e-05 -0.000368723  -0.00592029 
         -50      1.40635  8.00918e-05 -0.000378244  -0.00592047 
         -50      1.45525  7.16067e-05 -0.000387219  -0.00592067 
         -50      1.50498  6.33839e-05 -0.000395617  -0.00592088 
         -50      1.55558  5.54741e-05 -0.000403412   -0.0059211 
         -50      1.60699  4.78191e-05 -0.000410567  -0.00592133 
         -50      1.65927  4.04683e-05 -0.000417067  -0.00592158 
         -50      1.71235  3.34793e-05 -0.000422888  -0.00592184 
         -50      1.76629  2.68823e-05 -0.000428025  -0.00592212 
         -50      1.82104  2.07142e-05 -0.000432466   -0.0059224 
         -50      1.87666  1.49878e-05 -0.000436216   -0.0059227 
         -50      1.93309  9.72281e-06 -0.000439277  -0.00592301 
         -50      1.99034  4.92102e-06 -0.000441665  -0.00592333 
         -50      2.04847  5.79576e-07 -0.000443397  -0.00592366 
         -50       2.1074 -3.30217e-06 -0.000444495    -0.005924 
         -50      2.16721 -6.73921e-06 -0.000444989  -0.00592434 
         -50      2.22781 -9.74191e-06  -0.00044491   -0.0059247 
         -50      2.28928  -1.2332e-05 -0.000444295  -0.00592506 
         -50      2.35156 -1.45272e-05 -0.000443182  -0.00592542 
         -50       2.4147  -1.6354e-05 -0.000441612   -0.0059258 
         -50      2.47865 -1.78362e-05 -0.000439628  -0.00592618 
         -50      2.54347 -1.90035e-05 -0.000437271  -0.00592656 
         -50      2.60909 -1.98842e-05 -0.000434584  -0.00592694 
         -50      2.67554 -2.05101e-05 -0.000431607  -0.00592733 
         -50      2.74287 -2.09132e-05 -0.000428375  -0.00592772 
         -50        2.811 -2.11252e-05 -0.000424929  -0.00592812 
         -50         2.88  -2.1178e-05 -0.000421296  -0.00592851 
         -50      2.94979  -2.1102e-05 -0.000417512  -0.00592891 
         -50      3.02047 -2.09253e-05 -0.000413596  -0.00592931 
         -50      3.09194 -2.06731e-05 -0.000409578  -0.00592971 
         -50      3.16429 -2.03655e-05 -0.000405472  -0.00593011 
         -50      3.23743  -2.0018e-05 -0.000401302   -0.0059305 
         -50       3.3114 -1.96396e-05  -0.00039708   -0.0059309 
         -50      3.38626 -1.92335e-05 -0.000392818   -0.0059313 
         -50      3.46191 -1.87988e-05 -0.000388532   -0.0059317 
         -50      3.53844 -1.83322e-05 -0.000384227   -0.0059321 
         -50      3.61576 -1.78349e-05 -0.000379912   -0.0059325 
         -50      3.69396 -1.73192e-05 -0.000375578  -0.00593289 
         -50      3.77295   -1.682e-05 -0.000371247  -0.00593329 
         -50      3.85283 -1.63753e-05 -0.000366914  -0.00593369 
         -50      3.93349  -1.5995e-05 -0.000362568  -0.00593409 
         -50      4.01504  -1.5521e-05 -0.000358251  -0.00593447 
         -50      4.09737 -1.50603e-05 -0.000353942  -0.00593486 
         -50      4.18054 -1.45862e-05  -0.00034964  -0.00593525 
         -50       4.2646 -1.41042e-05  -0.00034534  -0.00593564 
         -50      4.34945 -1.36304e-05 -0.000341049  -0.00593603 
         -50      4.43518 -1.31758e-05 -0.000336765  -0.00593642 
         -50      4.52169  -1.2742e-05 -0.000332497   -0.0059368 
         -50      4.60909 -1.23198e-05 -0.000328244  -0.00593718 
         -50      4.69728 -1.18947e-05 -0.000324013  -0.00593756 
         -50      4.78636 -1.14518e-05 -0.000319801  -0.00593794 
         -50      4.87621 -1.09838e-05  -0.00031561  -0.00593831 
         -50      4.96691  -1.0494e-05 -0.000311435  -0.00593868 
         -50      5.05849 -9.99798e-06 -0.000307269  -0.00593906 
         -50      5.15086 -9.52135e-06 -0.000303117  -0.00593942 
         -50      5.24411 -9.08876e-06  -0.00029898  -0.00593979 
         -50      5.33815 -8.71312e-06 -0.000294872  -0.00594015 
         -50      5.43308 -8.37774e-06 -0.000290795  -0.00594051 
         -50      5.52879 -8.02329e-06 -0.000286751  -0.00594086 
         -50       5.6254 -7.53768e-06 -0.000282692  -0.00594122 
         -50      5.72278 -6.97669e-06 -0.000278702  -0.00594158 
         -50      5.82099  -6.5384e-06 -0.000274698  -0.00594194 
         -50      5.92011 -6.13399e-06 -0.000270726  -0.00594229 
         -50         6.02 -5.72892e-06 -0.000266797  -0.00594264 
         -50      6.12078 -5.32959e-06 -0.000262892  -0.00594298 
         -50      6.22234 -4.95513e-06 -0.000259003  -0.00594332 
         -50       6.3248 -4.60529e-06 -0.000255129  -0.00594366 
         -50      6.42803 -4.24696e-06 -0.000251288  -0.00594399 
         -50      6.53216 -3.82567e-06 -0.000247482  -0.00594432 
         -50      6.63707  -3.3201e-06 -0.000243711  -0.00594465 
         -50      6.74287 -2.83848e-06  -0.00023996  -0.00594498 
         -50      6.84945 -2.46141e-06  -0.00023625  -0.00594529 
         -50      6.95686 -2.12574e-06 -0.000232564  -0.00594561 
         -50      7.06517 -1.81798e-06 -0.000228906  -0.00594592 
         -50      7.17426 -1.51272e-06 -0.000225281  -0.00594623 
         -50      7.28424 -1.18545e-06 -0.000221684  -0.00594654 
         -50        7.395 -8.21218e-07 -0.000218118  -0.00594685 
         -50      7.50666 -4.15127e-07 -0.000214579  -0.00594715 
         -50      7.61908  2.59659e-08 -0.000211076  -0.00594745 
         -50      7.73241  4.83331e-07 -0.000207606  -0.00594774 
         -50      7.84651  9.14238e-07 -0.000204174  -0.00594802 
         -50      7.96145  1.22809e-06 -0.000200768  -0.00594831 
         -50      8.07729  1.33592e-06 -0.000197375  -0.00594861 
         -50      8.19389  1.70223e-06 -0.000194074  -0.00594886 
         -50      8.31141  1.99549e-06  -0.00019077  -0.00594912 
         -50      8.42969  2.34731e-06 -0.000187483  -0.00594939 
         -50      8.54887  2.76091e-06 -0.000184226  -0.00594967 
         -50      8.66882  3.16686e-06 -0.000181016  -0.00594994 
         -50      8.78968  3.49239e-06 -0.000177852  -0.00595021 
         -50      8.91131  3.72121e-06  -0.00017473  -0.00595046 
         -50      9.03384  3.92792e-06  -0.00017163   -0.0059507 
         -50      9.15713  4.25017e-06 -0.000168553  -0.00595094 
         -50      9.28126  4.76322e-06 -0.000165538  -0.00595117 
         -50       9.4063  5.01973e-06 -0.000162564  -0.00595141 
         -50       9.5321  5.18594e-06 -0.000159579  -0.00595164 
         -50      9.65882  5.49898e-06 -0.000156671  -0.00595188 
         -50      9.78629  5.81264e-06   -0.0001538  -0.00595212 
         -50      9.91468  6.07209e-06 -0.000150945  -0.00595235 
         -50      10.0438  6.27712e-06 -0.000148112  -0.00595257 
         -50      10.1739  6.45549e-06 -0.000145305  -0.00595278 
         -50      10.3047   6.6413e-06 -0.000142536  -0.00595299 
         -50      10.4363  6.86196e-06 -0.000139812  -0.00595319 
         -50      10.5689  7.13029e-06 -0.000137134  -0.00595339 
         -50      10.7022  7.44165e-06 -0.000134502  -0.00595359 
         -50      10.8365   7.7773e-06 -0.000131909  -0.00595379 
         -50      10.9715  8.10843e-06  -0.00012935  -0.00595398 
         -50      11.1074  8.40541e-06 -0.000126815  -0.00595418 
         -50      11.2441  8.64476e-06 -0.000124302  -0.00595436 
         -50      11.3816  8.81827e-06  -0.00012181  -0.00595455 
         -50        11.52  8.93723e-06 -0.000119346  -0.00595472 
         -50      11.6592  9.03439e-06 -0.000116918  -0.00595489 
         -50      11.7993  9.15869e-06 -0.000114537  -0.00595505 
         -50      11.9401  9.36197e-06 -0.000112216   -0.0059552 
         -50      12.0819  9.67619e-06 -0.000109953  -0.00595535 
         -50      12.2244  1.00764e-05 -0.000107735   -0.0059555 
         -50      12.3678   1.0431e-05 -0.000105512  -0.00595565 
         -50       12.512  1.04325e-05 -0.000103196   -0.0059558 
         -50      12.6571  1.01314e-05 -0.000100937  -0.00595594 
         -50       12.803  1.06118e-05  -9.9003e-05  -0.00595611 
         -50      12.9498   1.0951e-05 -9.68232e-05  -0.00595631 
         -50      13.0973  1.10481e-05 -9.47727e-05  -0.00595639 
         -50      13.2457  1.10507e-05 -9.27225e-05  -0.00595647 
         -50       13.395  1.11302e-05 -9.07069e-05  -0.00595656 
         -50       13.545  1.13104e-05 -8.87397e-05  -0.00595667 
         -50       13.696  1.15476e-05 -8.68132e-05  -0.00595678 
         -50      13.8477  1.17827e-05 -8.49193e-05  -0.00595689 
         -50      14.0004  1.19716e-05 -8.30468e-05    -0.005957 
         -50      14.1537  1.20968e-05 -8.11933e-05  -0.00595711 
         -50      14.3081  1.21682e-05 -7.93578e-05  -0.00595722 
         -50      14.4631  1.22137e-05 -7.75473e-05  -0.00595732 
         -50       14.619  1.22673e-05  -7.5768e-05  -0.00595742 
         -50      14.7758  1.23562e-05 -7.40252e-05  -0.00595751 
         -50      14.9334  1.24906e-05  -7.2325e-05   -0.0059576 
         -50      15.0919  1.26603e-05 -7.06652e-05  -0.00595767 
         -50      15.2511  1.28358e-05 -6.90438e-05  -0.00595774 
         -50      15.4113  1.29785e-05 -6.74515e-05   -0.0059578 
         -50      15.5722  1.30544e-05 -6.58825e-05  -0.00595785 
         -50      15.7341  1.30518e-05  -6.4329e-05  -0.00595789 
         -50      15.8966  1.29939e-05 -6.27922e-05  -0.00595794 
         -50      16.0602  1.29423e-05 -6.12755e-05  -0.00595798 
         -50      16.2244  1.29782e-05 -5.97912e-05  -0.00595802 
         -50      16.3895  1.31483e-05 -5.83463e-05  -0.00595806 
         -50      16.5555   1.3359e-05 -5.69308e-05  -0.00595811 
         -50      16.7223  1.33834e-05 -5.55269e-05  -0.00595815 
         -50        16.89  1.36739e-05 -5.41989e-05  -0.00595818 
         -50      17.0584  1.36931e-05 -5.28512e-05  -0.00595821 
         -50      17.2278  1.36123e-05 -5.15249e-05  -0.00595823 
         -50      17.3979  1.35206e-05 -5.02344e-05  -0.00595825 
         -50      17.5689  1.34556e-05 -4.89765e-05  -0.00595828 
         -50      17.7407  1.34271e-05 -4.77455e-05   -0.0059583 
         -50      17.9133  1.34317e-05 -4.65339e-05  -0.00595832 
         -50      18.0869  1.34618e-05 -4.53375e-05  -0.00595834 
         -50      18.2611  1.35099e-05  -4.4158e-05  -0.00595835 
         -50      18.4364  1.35696e-05 -4.29969e-05  -0.00595835 
         -50      18.6123   1.3635e-05 -4.18596e-05  -0.00595835 
         -50      18.7892  1.36992e-05 -4.07484e-05  -0.00595834 
         -50      18.9669   1.3753e-05  -3.9666e-05  -0.00595832 
         -50      19.1454  1.37852e-05 -3.86104e-05   -0.0059583 
         -50      19.3247  1.37841e-05 -3.75798e-05  -0.00595827 
         -50       19.505    1.374e-05  -3.6569e-05  -0.00595825 
         -50      19.6859  1.36497e-05 -3.55761e-05  -0.00595823 
         -50      19.8677  1.35208e-05 -3.45995e-05  -0.00595821 
         -50      20.0505  1.33745e-05 -3.36402e-05   -0.0059582 
         -50       20.234  1.32462e-05 -3.27012e-05   -0.0059582 
         -50      20.4184  1.31298e-05 -3.18572e-05  -0.00595814 
         -50      20.6035  1.31487e-05 -3.09858e-05  -0.00595805 
         -50      20.7896  1.33648e-05 -3.00422e-05  -0.00595797 
         -50      20.9765   1.3668e-05 -2.91189e-05   -0.0059579 
         -50      21.1642   1.3608e-05 -2.85504e-05  -0.00595787 
         -50      21.3527  1.37518e-05 -2.74281e-05  -0.00595779 
         -50      21.5421  1.32834e-05 -2.66669e-05  -0.00595773 
         -50      21.7323  1.28793e-05 -2.60107e-05  -0.00595771 
         -50      21.9233  1.28782e-05 -2.52728e-05  -0.00595775 
         -50      22.1153  1.29667e-05 -2.43949e-05  -0.00595762 
         -50       22.308  1.30212e-05 -2.36477e-05   -0.0059575 
         -50      22.5016  1.30525e-05 -2.29957e-05  -0.00595742 
         -50      22.6959  1.30511e-05  -2.2372e-05  -0.00595736 
         -50      22.8912  1.30133e-05 -2.17337e-05  -0.00595732 
         -50      23.0872  1.29436e-05 -2.10669e-05  -0.00595728 
         -50      23.2841  1.28522e-05 -2.03803e-05  -0.00595723 
         -50      23.4819  1.27511e-05 -1.96971e-05  -0.00595716 
         -50      23.6804  1.26502e-05 -1.90457e-05  -0.00595707 
         -50      23.8799  1.25545e-05 -1.84458e-05  -0.00595695 
         -50      24.0801  1.24642e-05 -1.79024e-05  -0.00595683 
         -50      24.2813  1.23766e-05 -1.73986e-05  -0.00595669 
         -50      24.4831  1.22902e-05 -1.69007e-05  -0.00595657 
         -50       24.686  1.22081e-05 -1.63683e-05  -0.00595647 
         -50      24.8895  1.21386e-05 -1.57805e-05  -0.00595638 
         -50       25.094  1.20882e-05 -1.51731e-05  -0.00595631 
         -50      25.2992  1.20419e-05 -1.46982e-05  -0.00595619 
         -50      25.5052  1.18993e-05 -1.43248e-05  -0.00595604 
         -50      25.7123  1.16813e-05 -1.36086e-05  -0.00595598 
         -50        25.92  1.16363e-05 -1.31614e-05  -0.00595588 
         -50      26.1287  1.16729e-05 -1.28186e-05  -0.00595578 
         -50       26.338  1.16253e-05 -1.24728e-05  -0.00595567 
         -50      26.5484   1.1428e-05  -1.2055e-05  -0.00595557 
         -50      26.7595  1.11762e-05 -1.15626e-05  -0.00595546 
         -50      26.9715   1.1066e-05 -1.10859e-05  -0.00595535 
         -50      27.1842  1.12363e-05 -1.07564e-05  -0.00595522 
         -50      27.3978  1.15584e-05 -1.04739e-05  -0.00595508 
         -50      27.6123  1.13825e-05 -9.85764e-06  -0.00595492 
         -50      27.8276  1.08908e-05 -9.65334e-06   -0.0059548 
         -50      28.0438  1.05906e-05 -9.33268e-06  -0.00595467 
         -50      28.2607  1.04396e-05 -8.95661e-06  -0.00595453 
         -50      28.4786  1.03845e-05 -8.56666e-06  -0.00595438 
         -50      28.6972  1.03736e-05 -8.18999e-06  -0.00595424 
         -50      28.9167  1.03639e-05 -7.84068e-06  -0.00595409 
         -50       29.137  1.03246e-05 -7.52444e-06  -0.00595394 
         -50      29.3582  1.02392e-05 -7.23959e-06  -0.00595379 
         -50      29.5801  1.01047e-05  -6.9809e-06  -0.00595364 
         -50      29.8029  9.92861e-06 -6.74039e-06  -0.00595349 
         -50      30.0266  9.72642e-06 -6.50958e-06  -0.00595333 
         -50      30.2511  9.51761e-06 -6.28117e-06  -0.00595317 
         -50      30.4765  9.32122e-06 -6.04907e-06  -0.00595301 
         -50      30.7026  9.15327e-06 -5.81015e-06  -0.00595285 
         -50      30.9297  9.02312e-06 -5.56335e-06  -0.00595268 
         -50      31.1574  8.93256e-06 -5.31081e-06  -0.00595252 
         -50      31.3862  8.87473e-06 -5.05631e-06  -0.00595235 
         -50      31.6156  8.83544e-06 -4.80587e-06  -0.00595218 
         -50      31.8459  8.79508e-06 -4.56582e-06  -0.00595202 
         -50      32.0772    8.732e-06 -4.34234e-06  -0.00595186 
         -50      32.3092  8.62693e-06 -4.14078e-06   -0.0059517 
         -50      32.5421  8.46717e-06 -3.96372e-06  -0.00595154 
         -50      32.7757  8.25155e-06 -3.81107e-06  -0.00595138 
         -50      33.0103  7.99292e-06 -3.67863e-06  -0.00595123 
         -50      33.2456  7.72021e-06 -3.55867e-06  -0.00595107 
         -50      33.4819  7.47488e-06 -3.43968e-06  -0.00595091 
         -50      33.7189  7.30461e-06 -3.30827e-06  -0.00595074 
         -50      33.9567  7.24769e-06 -3.15089e-06  -0.00595057 
         -50      34.1955  7.31008e-06 -2.95759e-06  -0.00595038 
         -50       34.435   7.4295e-06 -2.72748e-06  -0.00595019 
         -50      34.6754  7.42538e-06 -2.47496e-06  -0.00594999 
         -50      34.9166   6.9723e-06 -2.25715e-06  -0.00594978 
         -50      35.1587  6.80326e-06 -2.38724e-06  -0.00594965 
         -50      35.4016  6.54117e-06 -2.60438e-06  -0.00594962 
         -50      35.6454  7.05825e-06 -2.33318e-06  -0.00594949 
         -50      35.8899  7.36103e-06 -1.82804e-06   -0.0059492 
         -50      36.1353  6.92701e-06 -1.66873e-06  -0.00594893 
         -50      36.3815  6.21068e-06 -1.64986e-06  -0.00594867 
         -50      36.6285  5.48461e-06 -1.65223e-06  -0.00594843 
         -50      36.8765  4.95918e-06 -1.64358e-06  -0.00594822 
         -50      37.1252  4.96563e-06 -1.67846e-06  -0.00594814 
         -50      37.3749  5.10497e-06 -1.62661e-06  -0.00594803 
         -50      37.6252  5.29956e-06 -1.51556e-06  -0.00594789 
         -50      37.8765  5.47653e-06 -1.37122e-06  -0.00594772 
         -50      38.1286  5.58022e-06 -1.21678e-06  -0.00594753 
         -50      38.3816  5.57907e-06 -1.07095e-06  -0.00594733 
         -50      38.6353  5.46603e-06 -9.47717e-07  -0.00594711 
         -50      38.8898  5.25553e-06 -8.55366e-07   -0.0059469 
         -50      39.1453  4.97735e-06 -7.96716e-07  -0.00594669 
         -50      39.4015   4.6702e-06 -7.69532e-07  -0.00594648 
         -50      39.6587  4.37299e-06  -7.6707e-07  -0.00594628 
         -50      39.9166  4.11941e-06 -7.79333e-07  -0.00594609 
         -50      40.1754  3.93134e-06 -7.94435e-07   -0.0059459 
         -50       40.435  3.81682e-06 -8.00197e-07  -0.00594572 
         -50      40.6955  3.76858e-06 -7.85918e-07  -0.00594554 
         -50      40.9567  3.76665e-06 -7.44086e-07  -0.00594536 
         -50      41.2189  3.78253e-06 -6.71814e-07  -0.00594518 
         -50      41.4818  3.78593e-06 -5.72184e-07    -0.005945 
         -50      41.7456  3.75242e-06 -4.54502e-07  -0.00594482 
         -50      42.0103  3.67111e-06 -3.34017e-07  -0.00594463 
         -50      42.2757  3.55084e-06 -2.30606e-07  -0.00594443 
         -50      42.5421    3.422e-06 -1.65169e-07  -0.00594423 
         -50      42.8091  3.33276e-06 -1.54961e-07  -0.00594404 
         -50      43.0772  3.33455e-06  -2.0579e-07  -0.00594384 
         -50      43.3459  3.45488e-06 -3.01573e-07  -0.00594364 
         -50      43.6157  3.65186e-06 -3.90535e-07  -0.00594343 
         -50      43.8861  3.74501e-06 -3.66746e-07  -0.00594321 
         -50      44.1573  3.31828e-06 -4.75615e-08  -0.00594295 
         -50      44.4296  2.55995e-06 -1.71245e-07  -0.00594275 
         -50      44.7025  1.98344e-06 -3.65994e-07  -0.00594259 
         -50      44.9764  1.57723e-06  -3.4909e-07  -0.00594242 
         -50       45.251  1.42685e-06 -2.67905e-07  -0.00594224 
         -50      45.5266  1.50952e-06 -1.99124e-07  -0.00594206 
         -50      45.8029  1.74113e-06 -1.70703e-07  -0.00594186 
         -50      46.0801  2.01227e-06 -1.80396e-07  -0.00594166 
         -50      46.3581  2.21212e-06 -2.12586e-07  -0.00594146 
         -50      46.6368  2.24279e-06 -2.53935e-07  -0.00594127 
         -50      46.9166  2.02011e-06  -3.0918e-07  -0.00594111 
         -50       47.197   1.4648e-06 -4.18107e-07  -0.00594103 
         -50      47.4785  1.31492e-06 -3.32808e-07  -0.00594078 
         -50      47.7606  1.41898e-06 -2.20078e-07  -0.00594046 
         -50      48.0437  1.47913e-06 -1.70937e-07   -0.0059402 
         -50      48.3275  1.51348e-06 -1.47062e-07  -0.00593998 
         -50      48.6123  1.51898e-06 -1.33544e-07  -0.00593979 
         -50      48.8978  1.48604e-06 -1.27976e-07  -0.00593962 
         -50      49.1842  1.40753e-06 -1.32776e-07  -0.00593945 
         -50      49.4714  1.28336e-06 -1.50468e-07  -0.00593928 
         -50      49.7593  1.12109e-06 -1.81235e-07  -0.00593912 
         -50      50.0483  9.34548e-07 -2.22239e-07  -0.00593894 
         -50      50.3379  7.41329e-07 -2.68039e-07  -0.00593875 
         -50      50.6286   5.5851e-07  -3.1204e-07  -0.00593856 
         -50      50.9199  4.00199e-07 -3.47895e-07  -0.00593835 
         -50      51.2122  2.74117e-07 -3.71253e-07  -0.00593815 
         -50      51.5052  1.80945e-07  -3.8079e-07  -0.00593793 
         -50      51.7992  1.13786e-07 -3.78915e-07  -0.00593772 
         -50      52.0938  6.02045e-08 -3.71548e-07  -0.00593751 
         -50      52.3893  4.82695e-09 -3.67125e-07   -0.0059373 
         -50      52.6858 -6.66822e-08 -3.74807e-07   -0.0059371 
         -50       52.983 -1.63364e-07 -4.01985e-07   -0.0059369 
         -50      53.2811 -2.85871e-07 -4.51459e-07  -0.00593671 
         -50        53.58 -4.24569e-07 -5.18394e-07  -0.00593653 
         -50      53.8798 -5.62293e-07 -5.88159e-07  -0.00593635 
         -50      54.1803 -6.81548e-07 -6.34861e-07  -0.00593617 
         -50      54.4819 -7.81016e-07 -6.22489e-07  -0.00593598 
         -50       54.784 -9.01762e-07 -5.08783e-07  -0.00593579 
         -50      55.0872 -8.71987e-07 -5.11234e-07  -0.00593562 
         -50      55.3911 -8.74148e-07 -4.67154e-07  -0.00593545 
         -50      55.6957 -9.32392e-07 -4.14985e-07  -0.00593527 
         -50      56.0014 -1.02763e-06 -3.95361e-07  -0.00593509 
         -50      56.3078 -1.14035e-06 -4.20353e-07  -0.00593489 
         -50      56.6152 -1.25329e-06 -4.84265e-07  -0.00593469 
         -50      56.9232 -1.35248e-06 -5.71964e-07  -0.00593449 
         -50      57.2323 -1.42862e-06 -6.65436e-07  -0.00593429 
         -50      57.5419 -1.47704e-06 -7.47834e-07  -0.00593408 
         -50      57.8527 -1.49787e-06 -8.06683e-07  -0.00593388 
         -50       58.164 -1.49532e-06 -8.34963e-07  -0.00593368 
         -50      58.4762  -1.4769e-06 -8.31728e-07  -0.00593347 
         -50      58.7895 -1.45235e-06 -8.01389e-07  -0.00593327 
         -50      59.1034 -1.43245e-06 -7.52703e-07  -0.00593307 
         -50      59.4183 -1.42762e-06 -6.97062e-07  -0.00593286 
         -50      59.7338 -1.44677e-06 -6.46922e-07  -0.00593266 
         -50      60.0504  -1.4961e-06 -6.13784e-07  -0.00593246 
         -50      60.3676 -1.57802e-06  -6.0677e-07  -0.00593225 
         -50      60.6858 -1.69069e-06 -6.31134e-07  -0.00593205 
         -50      61.0047 -1.82726e-06 -6.87353e-07  -0.00593185 
         -50      61.3245 -1.97642e-06 -7.70746e-07  -0.00593165 
         -50      61.6452 -2.12275e-06 -8.71622e-07  -0.00593145 
         -50      61.9666 -2.24764e-06 -9.75723e-07  -0.00593127 
         -50      62.2891 -2.33168e-06 -1.06589e-06  -0.00593109 
         -50      62.6121 -2.35663e-06 -1.12338e-06  -0.00593092 
         -50      62.9362 -2.30908e-06 -1.13036e-06  -0.00593078 
         -50       63.261 -2.18458e-06 -1.07204e-06  -0.00593066 
         -50      63.5868 -1.99238e-06 -9.39079e-07  -0.00593057 
         -50      63.9132 -2.23113e-06 -9.22038e-07  -0.00593042 
         -50      64.2406 -2.85952e-06 -1.14326e-06  -0.00593016 
         -50      64.5687 -2.99719e-06 -1.27856e-06  -0.00592996 
         -50      64.8976  -2.9349e-06 -1.38301e-06  -0.00592979 
         -50      65.2276 -2.87399e-06 -1.45597e-06  -0.00592963 
         -50      65.5582 -2.92713e-06 -1.46406e-06  -0.00592947 
         -50      65.8898 -3.09277e-06 -1.38234e-06  -0.00592929 
         -50      66.2221 -3.19807e-06 -1.25585e-06  -0.00592909 
         -50      66.5554 -2.80383e-06 -1.28374e-06  -0.00592885 
         -50      66.8893 -2.31503e-06 -1.44771e-06  -0.00592865 
         -50      67.2243  -2.1135e-06  -1.4349e-06  -0.00592849 
         -50      67.5599 -2.18185e-06 -1.37203e-06  -0.00592833 
         -50      67.8964 -2.46603e-06 -1.32379e-06  -0.00592817 
         -50      68.2338 -2.85911e-06 -1.31284e-06  -0.00592799 
         -50       68.572 -3.22878e-06 -1.33863e-06  -0.00592779 
         -50      68.9111 -3.44079e-06 -1.39141e-06  -0.00592758 
         -50      69.2509 -3.37293e-06 -1.46165e-06  -0.00592737 
         -50      69.5917  -2.9249e-06 -1.54579e-06  -0.00592717 
         -50      69.9332 -2.77203e-06 -1.56627e-06  -0.00592699 
         -50      70.2757 -3.02859e-06 -1.56925e-06   -0.0059268 
         -50      70.6188 -3.17592e-06 -1.61417e-06  -0.00592661 
         -50       70.963 -3.28969e-06 -1.67889e-06  -0.00592643 
         -50      71.3078 -3.41606e-06 -1.74666e-06  -0.00592625 
         -50      71.6535 -3.57432e-06  -1.8054e-06  -0.00592607 
         -50      72.0001 -3.76179e-06 -1.84693e-06   -0.0059259 
         -50      72.3475 -3.96011e-06 -1.86652e-06  -0.00592572 
         -50      72.6958 -4.14333e-06 -1.86279e-06  -0.00592554 
         -50      73.0448 -4.28423e-06 -1.83736e-06  -0.00592537 
         -50      73.3948 -4.36117e-06 -1.79449e-06   -0.0059252 
         -50      73.7455 -4.36209e-06 -1.74066e-06  -0.00592503 
         -50      74.0972 -4.28731e-06 -1.68369e-06  -0.00592486 
         -50      74.4495 -4.14987e-06 -1.63211e-06   -0.0059247 
         -50      74.8027 -3.97333e-06 -1.59384e-06  -0.00592453 
         -50      75.1569 -3.78795e-06 -1.57527e-06  -0.00592437 
         -50      75.5117 -3.62566e-06 -1.58013e-06   -0.0059242 
         -50      75.8676 -3.51315e-06 -1.60855e-06  -0.00592404 
         -50      76.2241 -3.46674e-06 -1.65657e-06  -0.00592387 
         -50      76.5817  -3.4877e-06 -1.71643e-06   -0.0059237 
         -50      76.9399  -3.5618e-06 -1.77751e-06  -0.00592353 
         -50      77.2991 -3.66412e-06 -1.82908e-06  -0.00592335 
         -50      77.6589 -3.77159e-06 -1.86437e-06  -0.00592317 
         -50      78.0198 -3.88715e-06 -1.88731e-06  -0.00592298 
         -50      78.3814  -4.0772e-06  -1.9219e-06  -0.00592278 
         -50      78.7437 -4.52801e-06 -2.02521e-06  -0.00592259 
         -50      79.1071 -5.62483e-06 -2.30484e-06  -0.00592239 
         -50      79.4712 -5.44644e-06 -2.17074e-06   -0.0059222 
         -50      79.8363 -4.89234e-06 -1.89238e-06  -0.00592204 
         -50       80.202  -4.7701e-06 -1.75272e-06  -0.00592189 
         -50      80.5687 -4.86054e-06  -1.7159e-06  -0.00592176 
         -50      80.9361 -5.00452e-06 -1.74905e-06  -0.00592163 
         -50      81.3045 -5.09747e-06 -1.82352e-06   -0.0059215 
         -50      81.6736 -5.08222e-06 -1.91575e-06  -0.00592137 
         -50      82.0435 -4.94175e-06 -2.00799e-06  -0.00592125 
         -50      82.4144  -4.6904e-06 -2.08822e-06  -0.00592113 
         -50       82.786 -4.36597e-06 -2.14952e-06  -0.00592101 
         -50      83.1586 -4.01988e-06 -2.18968e-06  -0.00592088 
         -50      83.5318 -3.71005e-06 -2.20983e-06  -0.00592075 
         -50      83.9061 -3.49133e-06 -2.21347e-06  -0.00592062 
         -50       84.281 -3.40936e-06 -2.20512e-06  -0.00592048 
         -50      84.6569 -3.49309e-06 -2.18915e-06  -0.00592033 
         -50      85.0335 -3.74952e-06 -2.16894e-06  -0.00592017 
         -50      85.4109  -4.1594e-06 -2.14636e-06  -0.00592001 