Variables = x, y, u, v, p

Zone, I=416, F=POINT
         -50            0            0            0      -142.47 
         -50     0.013333 -0.000133946 -5.89562e-08      -142.47 
         -50     0.053333 -0.000137415 -1.40237e-07      -142.47 
         -50         0.12 -0.000148472 -3.78185e-07      -142.47 
         -50     0.213332 -0.000157314 -9.58356e-07      -142.47 
         -50     0.333332 -0.000163259 -1.95221e-06      -142.47 
         -50         0.48 -0.000166342  -3.7214e-06      -142.47 
         -50     0.653331 -0.000168339 -5.30265e-06     -142.469 
         -50     0.853332 -0.000166991  -7.7889e-06     -142.468 
         -50         1.08 -0.000159613 -9.59795e-06     -142.467 
         -50      1.33333  -0.00014681 -1.11704e-05     -142.466 
         -50      1.61333 -0.000132093 -1.25964e-05     -142.464 
         -50         1.92 -0.000119606 -1.33442e-05     -142.462 
         -50      2.25333 -0.000111011  -1.4284e-05     -142.458 
         -50      2.61333 -0.000109321 -1.66129e-05     -142.454 
         -50            3 -0.000112636 -1.97995e-05     -142.449 
         -25            0           -0           -0     -136.811 
         -25     0.013333  -9.2834e-05 -3.71951e-08     -136.811 
         -25     0.053333  -7.9757e-05 -2.52602e-07     -136.811 
         -25         0.12 -6.41431e-05 -9.27811e-07     -136.811 
         -25     0.213332 -4.74722e-05  -2.1316e-06     -136.811 
         -25     0.333332 -3.67088e-05 -3.69081e-06     -136.811 
         -25         0.48 -3.28903e-05 -5.42827e-06      -136.81 
         -25     0.653331 -3.64345e-05 -7.35698e-06      -136.81 
         -25     0.853332  -4.6632e-05 -9.52305e-06      -136.81 
         -25         1.08 -5.90615e-05 -1.16978e-05      -136.81 
         -25      1.33333 -7.01751e-05 -1.36374e-05     -136.809 
         -25      1.61333 -8.13948e-05 -1.49925e-05     -136.808 
         -25         1.92 -9.50221e-05  -1.5897e-05     -136.807 
         -25      2.25333 -0.000102818  -1.6062e-05     -136.806 
         -25      2.61333 -0.000102002 -1.50604e-05     -136.805 
         -25            3 -9.70624e-05 -1.32698e-05     -136.803 
           0            0            0            0      -132.18 
           0     0.013333 -0.000140523  0.000120271     -132.185 
           0     0.053333 -0.000104002  5.96963e-05     -132.192 
           0         0.12 -7.06608e-05  4.61724e-05     -132.201 
           0     0.213332 -5.78047e-05  3.46065e-05      -132.21 
           0     0.333332 -5.97894e-05  2.88234e-05     -132.219 
           0         0.48 -6.29433e-05  2.57919e-05     -132.229 
           0     0.653331 -6.30068e-05  2.48298e-05     -132.238 
           0     0.853332 -6.13269e-05   2.5132e-05     -132.246 
           0         1.08 -6.20679e-05  2.59703e-05     -132.255 
           0      1.33333 -6.49608e-05  2.68697e-05     -132.263 
           0      1.61333 -6.76849e-05  2.73818e-05      -132.27 
           0         1.92 -7.13637e-05  2.71964e-05     -132.277 
           0      2.25333 -7.43403e-05  2.65966e-05     -132.284 
           0      2.61333 -6.89273e-05  2.65745e-05      -132.29 
           0            3 -5.99093e-05   2.5246e-05     -132.296 
          20            0  0.000106052 -3.96673e-05     -129.385 
          20     0.013333  0.000106165 -3.96882e-05     -129.385 
          20     0.053333  0.000106909 -3.96628e-05     -129.385 
          20         0.12   0.00010956 -3.93265e-05     -129.384 
          20     0.213332  0.000116111 -3.82463e-05     -129.384 
          20     0.333332  0.000127961 -3.58738e-05     -129.383 
          20         0.48  0.000142685 -3.17037e-05     -129.382 
          20     0.653331  0.000151024  -2.5666e-05     -129.382 
          20     0.853332   0.00013946 -1.85691e-05      -129.38 
          20         1.08  0.000104019 -1.16788e-05     -129.379 
          20      1.33333  5.32982e-05 -5.67422e-06     -129.377 
          20      1.61333 -6.48671e-06 -8.98692e-07     -129.375 
          20         1.92 -6.39111e-05   2.4654e-06     -129.373 
          20      2.25333 -0.000106765  4.60683e-06      -129.37 
          20      2.61333  -0.00013145  5.98874e-06     -129.367 
          20            3 -0.000137469  8.84045e-06     -129.364 
          40            0           -0           -0     -126.427 
          40     0.013333 -0.000114637 -1.18219e-07     -126.427 
          40     0.053333 -0.000189281 -1.81325e-06     -126.427 
          40         0.12 -0.000189621 -8.78026e-06     -126.427 
          40     0.213332 -7.61325e-05 -2.47606e-05     -126.427 
          40     0.333332  7.26082e-05 -5.04811e-05     -126.427 
          40         0.48  0.000162241 -8.38684e-05     -126.427 
          40     0.653331   0.00018099 -0.000121923     -126.427 
          40     0.853332   0.00018006 -0.000161339     -126.427 
          40         1.08  0.000157771 -0.000199778     -126.427 
          40      1.33333  0.000115494 -0.000233449     -126.426 
          40      1.61333  7.23843e-05 -0.000257458     -126.426 
          40         1.92   1.4735e-05 -0.000268384     -126.426 
          40      2.25333 -3.15829e-05 -0.000265756     -126.426 
          40      2.61333 -6.59353e-05 -0.000252464     -126.425 
          40            3 -9.65517e-05 -0.000232259     -126.425 
          60            0           -0           -0     -123.625 
          60     0.013333 -0.000138369 -7.23834e-08     -123.625 
          60     0.053333  -0.00029777 -1.15423e-06     -123.625 
          60         0.12 -0.000434087 -5.82411e-06     -123.625 
          60     0.213332 -0.000464349 -1.73149e-05     -123.625 
          60     0.333332 -0.000405449 -3.75503e-05     -123.625 
          60         0.48 -0.000333574 -6.66236e-05     -123.625 
          60     0.653331 -0.000319171 -0.000103869     -123.625 
          60     0.853332 -0.000370691 -0.000147145     -123.625 
          60         1.08 -0.000404493 -0.000190615     -123.625 
          60      1.33333 -0.000352911 -0.000227475     -123.625 
          60      1.61333 -0.000250114  -0.00025506     -123.625 
          60         1.92 -0.000140404 -0.000269941     -123.624 
          60      2.25333 -4.86857e-05 -0.000271156     -123.624 
          60      2.61333  1.20145e-05 -0.000261221     -123.624 
          60            3  4.68436e-05 -0.000243658     -123.624 
          80            0           -0           -0     -120.919 
          80     0.013333 -0.000118092  9.79074e-08     -120.919 
          80     0.053333 -0.000271577  1.32415e-06     -120.919 
          80         0.12 -0.000492179  4.88749e-06     -120.919 
          80     0.213332 -0.000692426  9.76326e-06     -120.919 
          80     0.333332 -0.000810437  1.30671e-05     -120.919 
          80         0.48 -0.000852402  1.31118e-05     -120.919 
          80     0.653331 -0.000839197  1.13125e-05     -120.919 
          80     0.853332 -0.000754787  1.09605e-05     -120.919 
          80         1.08 -0.000607499  1.29973e-05     -120.919 
          80      1.33333 -0.000451943  1.59592e-05     -120.919 
          80      1.61333 -0.000303206  1.83774e-05     -120.919 
          80         1.92 -0.000145409  2.02065e-05     -120.919 
          80      2.25333 -1.62907e-05  2.14157e-05     -120.919 
          80      2.61333  7.40008e-05  2.14968e-05     -120.919 
          80            3  0.000130347  2.06367e-05     -120.919 
         100            0           -0           -0     -118.271 
         100     0.013333 -8.61503e-05  5.79811e-08     -118.271 
         100     0.053333  -0.00014734  7.44777e-07     -118.271 
         100         0.12 -0.000227206  2.50335e-06     -118.271 
         100     0.213332 -0.000278055  4.32875e-06      -118.27 
         100     0.333332 -0.000282892  4.70655e-06      -118.27 
         100         0.48 -0.000262808  3.63648e-06      -118.27 
         100     0.653331 -0.000230952   3.0044e-06      -118.27 
         100     0.853332  -0.00017207  5.22112e-06      -118.27 
         100         1.08 -0.000102007   1.0072e-05      -118.27 
         100      1.33333 -6.70823e-05  1.48703e-05      -118.27 
         100      1.61333 -4.55766e-05  1.86062e-05      -118.27 
         100         1.92 -1.39672e-05  2.18035e-05      -118.27 
         100      2.25333  8.98991e-06  2.40734e-05      -118.27 
         100      2.61333   1.7883e-05  2.48597e-05      -118.27 
         100            3  1.68919e-05  2.46188e-05      -118.27 
         150            0 -4.25233e-20 -2.71968e-25     -111.779 
         150     0.013333  2.96594e-05  3.78151e-08     -111.779 
         150     0.053333  0.000244699  8.26321e-07     -111.779 
         150         0.12  0.000423031  5.26618e-06     -111.779 
         150     0.213332  0.000444585  1.82263e-05     -111.779 
         150     0.333332  0.000330963  4.28189e-05     -111.779 
         150         0.48  0.000200768  7.76809e-05     -111.779 
         150     0.653331  0.000130202  0.000118526     -111.779 
         150     0.853332  9.99077e-05  0.000160102     -111.779 
         150         1.08   5.3696e-05  0.000197692     -111.779 
         150      1.33333 -7.26599e-06  0.000229101     -111.779 
         150      1.61333 -5.71753e-05  0.000253928     -111.779 
         150         1.92 -9.78771e-05  0.000269292     -111.779 
         150      2.25333 -0.000130194  0.000273259     -111.779 
         150      2.61333  -0.00015083  0.000266714     -111.779 
         150            3 -0.000158887  0.000251368     -111.779 
         200            0           -0           -0      -105.37 
         200     0.013333  -5.9815e-06  2.46147e-07      -105.37 
         200     0.053333  7.51047e-05  3.71095e-06      -105.37 
         200         0.12  1.62041e-05  1.67526e-05      -105.37 
         200     0.213332 -0.000213385  4.44345e-05      -105.37 
         200     0.333332 -0.000487337  8.64619e-05      -105.37 
         200         0.48  -0.00066886  0.000138753      -105.37 
         200     0.653331 -0.000709939  0.000198079      -105.37 
         200     0.853332  -0.00062312  0.000263014      -105.37 
         200         1.08 -0.000473249  0.000329928      -105.37 
         200      1.33333 -0.000351849  0.000391773      -105.37 
         200      1.61333 -0.000264814  0.000442485      -105.37 
         200         1.92 -0.000164025   0.00047759      -105.37 
         200      2.25333 -7.53694e-05  0.000494003      -105.37 
         200      2.61333  -5.3564e-06  0.000491056      -105.37 
         200            3  4.97141e-05   0.00047076      -105.37 
         250            0           -0           -0     -98.9863 
         250     0.013333 -3.65247e-06  1.57259e-07     -98.9863 
         250     0.053333  0.000104678  2.41672e-06     -98.9863 
         250         0.12  0.000124373  1.12093e-05     -98.9863 
         250     0.213332  5.34294e-06   3.0627e-05     -98.9863 
         250     0.333332  -0.00017661  6.12742e-05     -98.9863 
         250         0.48 -0.000312558  0.000100571     -98.9863 
         250     0.653331 -0.000352767  0.000145782     -98.9863 
         250     0.853332 -0.000305021  0.000195139     -98.9863 
         250         1.08 -0.000219753  0.000245727     -98.9863 
         250      1.33333  -0.00015992  0.000292807     -98.9863 
         250      1.61333 -0.000130025  0.000332365     -98.9863 
         250         1.92 -9.53591e-05  0.000361287     -98.9863 
         250      2.25333 -6.38397e-05  0.000377093     -98.9863 
         250      2.61333 -3.79822e-05  0.000378712     -98.9863 
         250            3 -1.66806e-05  0.000366747     -98.9863 
         300            0            0            0     -92.6104 
         300     0.013333 -1.61382e-05 -6.55829e-08     -92.6104 
         300     0.053333  0.000125385 -9.44868e-07     -92.6104 
         300         0.12  0.000341784 -3.98495e-06     -92.6104 
         300     0.213332  0.000577509 -9.63803e-06     -92.6104 
         300     0.333332  0.000755651 -1.65081e-05     -92.6104 
         300         0.48  0.000839653 -2.21589e-05     -92.6104 
         300     0.653331  0.000849221 -2.48297e-05     -92.6104 
         300     0.853332   0.00082114  -2.4273e-05     -92.6104 
         300         1.08  0.000765066 -2.15485e-05     -92.6104 
         300      1.33333  0.000665435 -1.84365e-05     -92.6104 
         300      1.61333  0.000523575 -1.58101e-05     -92.6104 
         300         1.92  0.000357801 -1.33778e-05     -92.6104 
         300      2.25333  0.000188693 -1.10037e-05     -92.6104 
         300      2.61333  2.96017e-05 -8.63118e-06     -92.6104 
         300            3 -0.000107347 -6.37441e-06     -92.6104 
         350            0            0            0     -86.2368 
         350     0.013333 -0.000217074  5.28704e-08     -86.2368 
         350     0.053333 -0.000623682  5.43765e-07     -86.2368 
         350         0.12  -0.00112021  8.19647e-07     -86.2368 
         350     0.213332  -0.00149254 -2.87366e-06     -86.2368 
         350     0.333332  -0.00162995 -1.58256e-05     -86.2368 
         350         0.48  -0.00158742 -4.09155e-05     -86.2368 
         350     0.653331  -0.00149112 -7.69912e-05     -86.2368 
         350     0.853332  -0.00140609 -0.000120039     -86.2368 
         350         1.08  -0.00129979 -0.000164619     -86.2368 
         350      1.33333  -0.00112146 -0.000205846     -86.2368 
         350      1.61333  -0.00088826 -0.000241825     -86.2368 
         350         1.92 -0.000634411 -0.000271382     -86.2368 
         350      2.25333 -0.000377198 -0.000292193     -86.2368 
         350      2.61333 -0.000133248 -0.000302914     -86.2368 
         350            3  7.79463e-05 -0.000302873     -86.2367 
         400            0 -2.76526e-20  6.61992e-27     -79.8617 
         400     0.013333   0.00010388  2.12591e-07     -79.8617 
         400     0.053333  0.000464895  3.43138e-06     -79.8617 
         400         0.12   0.00070956  1.70243e-05     -79.8617 
         400     0.213332  0.000631229  5.00123e-05     -79.8617 
         400     0.333332  0.000295698  0.000106985     -79.8617 
         400         0.48 -6.03217e-05  0.000185225     -79.8617 
         400     0.653331 -0.000261534  0.000278343     -79.8617 
         400     0.853332   -0.0002823   0.00038042     -79.8617 
         400         1.08 -0.000207848  0.000485497     -79.8617 
         400      1.33333 -0.000152234  0.000586352     -79.8617 
         400      1.61333 -0.000147033   0.00067664     -79.8617 
         400         1.92 -0.000142707  0.000751289     -79.8617 
         400      2.25333 -0.000134162  0.000804687     -79.8617 
         400      2.61333 -0.000122158  0.000832551     -79.8617 
         400            3 -0.000105864  0.000832664     -79.8617 
         450            0            0            0     -73.4858 
         450     0.013333  -2.2818e-05  -3.1429e-07     -73.4858 
         450     0.053333  0.000165794 -4.56395e-06     -73.4858 
         450         0.12  0.000584159 -1.95895e-05     -73.4858 
         450     0.213332   0.00115517 -4.91717e-05     -73.4858 
         450     0.333332   0.00166549  -9.0527e-05     -73.4858 
         450         0.48   0.00196996 -0.000137721     -73.4858 
         450     0.653331   0.00206772 -0.000187568     -73.4858 
         450     0.853332   0.00199711 -0.000241588     -73.4858 
         450         1.08   0.00176432 -0.000302677     -73.4858 
         450      1.33333   0.00142693 -0.000368987     -73.4858 
         450      1.61333   0.00109906  -0.00043285     -73.4858 
         450         1.92  0.000784913  -0.00048757     -73.4858 
         450      2.25333  0.000466618 -0.000529601     -73.4858 
         450      2.61333  0.000152492 -0.000555867     -73.4859 
         450            3  -0.00013229 -0.000564246     -73.4859 
         500            0            0            0     -67.1099 
         500     0.013333 -0.000115686   -1.025e-08     -67.1099 
         500     0.053333  -0.00024197 -2.83154e-07     -67.1099 
         500         0.12 -0.000364106 -2.08458e-06     -67.1099 
         500     0.213332 -0.000403853 -7.85641e-06     -67.1099 
         500     0.333332 -0.000361392 -1.94422e-05     -67.1099 
         500         0.48 -0.000303765 -3.62657e-05     -67.1099 
         500     0.653331 -0.000287813 -5.58351e-05     -67.1099 
         500     0.853332 -0.000308496 -7.52479e-05     -67.1099 
         500         1.08 -0.000314473  -9.1646e-05     -67.1099 
         500      1.33333 -0.000268484 -0.000103072     -67.1099 
         500      1.61333 -0.000195658  -0.00010979     -67.1099 
         500         1.92  -0.00013587 -0.000113444     -67.1099 
         500      2.25333 -8.58167e-05 -0.000113769     -67.1099 
         500      2.61333 -4.02165e-05 -0.000110703     -67.1099 
         500            3  -1.1004e-06  -0.00010439     -67.1099 
         550            0           -0           -0     -60.7317 
         550     0.013333 -0.000136459  3.83977e-07     -60.7317 
         550     0.053333 -0.000440005  5.63354e-06     -60.7317 
         550         0.12  -0.00107866  2.44939e-05     -60.7317 
         550     0.213332   -0.0019266  6.20854e-05     -60.7317 
         550     0.333332  -0.00266328  0.000114405     -60.7317 
         550         0.48  -0.00305453  0.000172093     -60.7317 
         550     0.653331  -0.00310384  0.000229136     -60.7317 
         550     0.853332  -0.00291693  0.000286221     -60.7317 
         550         1.08  -0.00257112  0.000346008     -60.7317 
         550      1.33333  -0.00215996   0.00040634     -60.7317 
         550      1.61333  -0.00177675  0.000460912     -60.7317 
         550         1.92  -0.00139273  0.000505762     -60.7317 
         550      2.25333 -0.000981932  0.000538484     -60.7317 
         550      2.61333 -0.000557573  0.000556852     -60.7317 
         550            3 -0.000153063  0.000559009     -60.7316 
         600            0           -0           -0     -54.3476 
         600     0.013333  0.000145356 -3.00009e-07     -54.3476 
         600     0.053333  0.000762782 -4.11621e-06     -54.3476 
         600         0.12   0.00166648 -1.60245e-05     -54.3476 
         600     0.213332   0.00255385 -3.48073e-05     -54.3476 
         600     0.333332   0.00311915 -5.24247e-05     -54.3476 
         600         0.48   0.00330629 -6.12384e-05     -54.3476 
         600     0.653331   0.00327237 -6.06974e-05     -54.3476 
         600     0.853332   0.00314143 -5.73628e-05     -54.3476 
         600         1.08   0.00287492 -6.07536e-05     -54.3476 
         600      1.33333   0.00242408  -7.5843e-05     -54.3476 
         600      1.61333   0.00190651 -9.78315e-05     -54.3476 
         600         1.92   0.00143011 -0.000118863     -54.3477 
         600      2.25333   0.00095755 -0.000136871     -54.3477 
         600      2.61333  0.000476072 -0.000151323     -54.3477 
         600            3  1.71274e-05 -0.000161497     -54.3478 
         650            0            0            0     -47.9634 
         650     0.013333 -0.000296252  -1.6337e-08     -47.9634 
         650     0.053333 -0.000887065  -5.8531e-07     -47.9634 
         650         0.12  -0.00154949 -4.87401e-06     -47.9634 
         650     0.213332  -0.00196215   -1.993e-05     -47.9634 
         650     0.333332  -0.00200564 -5.30082e-05     -47.9634 
         650         0.48  -0.00181961 -0.000106205     -47.9634 
         650     0.653331  -0.00162816 -0.000175859     -47.9634 
         650     0.853332  -0.00154473 -0.000255667     -47.9634 
         650         1.08  -0.00151422 -0.000337827     -47.9634 
         650      1.33333  -0.00139357 -0.000413788     -47.9634 
         650      1.61333  -0.00114507 -0.000478916     -47.9634 
         650         1.92 -0.000878763 -0.000534171     -47.9634 
         650      2.25333 -0.000619134 -0.000578607     -47.9634 
         650      2.61333 -0.000361534 -0.000609311     -47.9634 
         650            3 -0.000112459 -0.000623443     -47.9633 
         700            0 -3.71893e-20  7.56919e-27     -41.5746 
         700     0.013333  4.26071e-05   1.2002e-07     -41.5746 
         700     0.053333  0.000276782  1.94744e-06     -41.5746 
         700         0.12  0.000448852   9.7148e-06     -41.5746 
         700     0.213332   0.00043051  2.86239e-05     -41.5746 
         700     0.333332  0.000261184  6.11553e-05     -41.5746 
         700         0.48  9.26169e-05  0.000105272     -41.5746 
         700     0.653331   3.7249e-05  0.000156877     -41.5746 
         700     0.853332  0.000108375   0.00021282     -41.5746 
         700         1.08  0.000242308   0.00027023     -41.5746 
         700      1.33333  0.000326313  0.000324192     -41.5746 
         700      1.61333  0.000293832  0.000369653     -41.5746 
         700         1.92  0.000216209  0.000405967     -41.5746 
         700      2.25333  0.000143851  0.000432997     -41.5746 
         700      2.61333  8.00375e-05  0.000449642     -41.5746 
         700            3  1.59351e-05  0.000454258     -41.5746 
         750            0           -0           -0     -35.1848 
         750     0.013333  -0.00030177  -2.1085e-07     -35.1848 
         750     0.053333   -0.0008471 -3.45228e-06     -35.1848 
         750         0.12  -0.00130474  -1.7558e-05     -35.1848 
         750     0.213332  -0.00133326 -5.33631e-05     -35.1848 
         750     0.333332 -0.000914684 -0.000118653     -35.1848 
         750         0.48 -0.000322313 -0.000213161     -35.1848 
         750     0.653331  0.000146186 -0.000330163     -35.1848 
         750     0.853332  0.000363732 -0.000461972     -35.1848 
         750         1.08  0.000368267 -0.000602343     -35.1848 
         750      1.33333  0.000288548 -0.000744657     -35.1848 
         750      1.61333  0.000245044  -0.00088107     -35.1848 
         750         1.92  0.000240739  -0.00100574     -35.1848 
         750      2.25333  0.000230431  -0.00111304     -35.1848 
         750      2.61333  0.000203739  -0.00119702     -35.1848 
         750            3  0.000169328  -0.00125177     -35.1848 
         800            0            0            0      -28.791 
         800     0.013333  0.000311927 -3.33218e-07      -28.791 
         800     0.053333   0.00139675 -4.59847e-06      -28.791 
         800         0.12   0.00296613 -1.80351e-05      -28.791 
         800     0.213332   0.00454805 -3.92355e-05      -28.791 
         800     0.333332   0.00564373 -5.77326e-05      -28.791 
         800         0.48   0.00608062 -6.13917e-05      -28.791 
         800     0.653331    0.0060507  -4.5458e-05      -28.791 
         800     0.853332   0.00582145 -1.45216e-05      -28.791 
         800         1.08   0.00548079  2.14088e-05      -28.791 
         800      1.33333   0.00496998  5.32717e-05      -28.791 
         800      1.61333   0.00428951   7.8292e-05      -28.791 
         800         1.92   0.00353991  9.94161e-05     -28.7911 
         800      2.25333   0.00274137  0.000118529     -28.7911 
         800      2.61333   0.00189795  0.000134714     -28.7911 
         800            3   0.00103486  0.000146704     -28.7912 
         850            0           -0           -0     -22.3987 
         850     0.013333  5.01339e-05  3.98225e-07     -22.3987 
         850     0.053333  0.000226593    6.018e-06     -22.3987 
         850         0.12  0.000142695  2.74696e-05     -22.3987 
         850     0.213332 -0.000329362  7.43989e-05     -22.3987 
         850     0.333332 -0.000994993  0.000148564     -22.3987 
         850         0.48   -0.0015442  0.000243904     -22.3987 
         850     0.653331  -0.00181353  0.000353434     -22.3987 
         850     0.853332  -0.00179799  0.000474873     -22.3987 
         850         1.08  -0.00153646  0.000609277     -22.3987 
         850      1.33333  -0.00112734  0.000754012     -22.3987 
         850      1.61333 -0.000766683  0.000898794     -22.3987 
         850         1.92 -0.000553251   0.00103211     -22.3987 
         850      2.25333 -0.000392095   0.00114753     -22.3987 
         850      2.61333 -0.000226351   0.00123987     -22.3986 
         850            3 -6.61864e-05   0.00130379     -22.3986 
         900            0            0            0     -16.0015 
         900     0.013333  -0.00022264 -2.06408e-07     -16.0015 
         900     0.053333 -0.000565981 -3.28444e-06     -16.0015 
         900         0.12  -0.00079735 -1.60817e-05     -16.0015 
         900     0.213332 -0.000692255  -4.6947e-05     -16.0015 
         900     0.333332 -0.000293887 -0.000100475     -16.0015 
         900         0.48  0.000157738  -0.00017457     -16.0015 
         900     0.653331  0.000448995 -0.000263291     -16.0015 
         900     0.853332  0.000512088 -0.000361669     -16.0015 
         900         1.08  0.000391502  -0.00046657     -16.0015 
         900      1.33333  0.000209859 -0.000573124     -16.0015 
         900      1.61333  0.000112068  -0.00067371     -16.0015 
         900         1.92  0.000108192 -0.000762894     -16.0015 
         900      2.25333  0.000113026 -0.000838728     -16.0015 
         900      2.61333  9.62615e-05 -0.000898428     -16.0015 
         900            3  7.25739e-05  -0.00093837     -16.0015 
         950            0            0            0      -9.6013 
         950     0.013333  0.000155656 -1.68318e-07      -9.6013 
         950     0.053333  0.000787486 -2.32574e-06      -9.6013 
         950         0.12   0.00170182 -9.16691e-06      -9.6013 
         950     0.213332   0.00263921 -2.01407e-05      -9.6013 
         950     0.333332   0.00331838   -3.011e-05      -9.6013 
         950         0.48   0.00362457 -3.27109e-05      -9.6013 
         950     0.653331   0.00364663 -2.47181e-05      -9.6013 
         950     0.853332   0.00354278 -7.36147e-06      -9.6013 
         950         1.08   0.00339185  1.49539e-05      -9.6013 
         950      1.33333   0.00316111   3.6637e-05      -9.6013 
         950      1.61333   0.00280441  5.36161e-05      -9.6013 
         950         1.92   0.00236566  6.64382e-05     -9.60131 
         950      2.25333   0.00189927  7.69162e-05     -9.60132 
         950      2.61333   0.00141566   8.5762e-05     -9.60134 
         950            3  0.000907897  9.25814e-05     -9.60136 
        1000            0            0            0     -3.20046 
        1000     0.013333  0.000194641  3.58775e-08     -3.20046 
        1000     0.053333  0.000863915  7.55974e-07     -3.20046 
        1000         0.12   0.00165813  4.87082e-06     -3.20046 
        1000     0.213332   0.00225106  1.79432e-05     -3.20046 
        1000     0.333332   0.00246003  4.63472e-05     -3.20046 
        1000         0.48   0.00234644  9.35147e-05     -3.20045 
        1000     0.653331    0.0021139  0.000158314     -3.20045 
        1000     0.853332   0.00193176  0.000236708     -3.20045 
        1000         1.08    0.0018433  0.000323746     -3.20045 
        1000      1.33333   0.00178294  0.000414122     -3.20045 
        1000      1.61333     0.001662   0.00050255     -3.20046 
        1000         1.92   0.00145874  0.000585297     -3.20046 
        1000      2.25333   0.00121192  0.000659648     -3.20047 
        1000      2.61333    0.0009446  0.000722529     -3.20048 
        1000            3  0.000660609  0.000770544     -3.20049 
