Variables = x, y, u, v, p

Zone, I=416, F=POINT
         -50            0            0            0      34.3468 
         -50     0.013333  3.10996e-05  1.18353e-08      34.3468 
         -50     0.053333  3.91909e-05 -7.87531e-09      34.3468 
         -50         0.12  4.64856e-05 -1.33102e-07      34.3467 
         -50     0.213332  5.85706e-05   -4.938e-07      34.3467 
         -50     0.333332  7.15409e-05 -1.20057e-06      34.3467 
         -50         0.48  8.19938e-05 -1.79211e-06      34.3466 
         -50     0.653331  8.76381e-05 -2.91388e-06      34.3465 
         -50     0.853332  8.62654e-05 -3.16344e-06      34.3463 
         -50         1.08  7.90646e-05 -4.25897e-06      34.3461 
         -50      1.33333  6.86298e-05 -5.19288e-06      34.3458 
         -50      1.61333  5.38796e-05 -5.44847e-06      34.3453 
         -50         1.92   3.6992e-05  -6.8464e-06      34.3447 
         -50      2.25333  2.34803e-05 -5.85066e-06      34.3439 
         -50      2.61333  1.75509e-05 -3.60282e-06      34.3429 
         -50            3  1.77719e-05 -4.19755e-06      34.3417 
         -25            0           -0           -0      32.9825 
         -25     0.013333  2.20629e-05  4.57136e-09      32.9825 
         -25     0.053333  2.59701e-05  1.60909e-09      32.9825 
         -25         0.12  2.76816e-05  -3.9991e-08      32.9825 
         -25     0.213332  3.22423e-05 -1.70023e-07      32.9825 
         -25     0.333332  3.82585e-05 -3.94133e-07      32.9825 
         -25         0.48  4.41041e-05 -7.79705e-07      32.9825 
         -25     0.653331  4.82248e-05 -1.13848e-06      32.9824 
         -25     0.853332  4.96587e-05 -1.59246e-06      32.9824 
         -25         1.08  4.81515e-05 -2.05288e-06      32.9823 
         -25      1.33333  4.54531e-05 -2.41908e-06      32.9822 
         -25      1.61333  4.24681e-05 -2.59982e-06       32.982 
         -25         1.92  3.99096e-05 -2.65159e-06      32.9818 
         -25      2.25333   3.1912e-05 -2.48663e-06      32.9815 
         -25      2.61333  2.05945e-05 -3.34894e-06      32.9811 
         -25            3  1.34271e-05 -6.11997e-06      32.9806 
           0            0            0            0      31.8672 
           0     0.013333  4.08023e-05 -2.36023e-05      31.8681 
           0     0.053333  4.45359e-05 -1.80343e-05        31.87 
           0         0.12  3.41811e-05 -1.57728e-05      31.8721 
           0     0.213332  2.23756e-05 -1.20247e-05      31.8743 
           0     0.333332  1.15704e-05 -8.51579e-06      31.8765 
           0         0.48  5.90623e-06 -5.32247e-06      31.8787 
           0     0.653331  5.37974e-06 -2.26119e-06      31.8809 
           0     0.853332  8.01353e-06  6.00786e-07       31.883 
           0         1.08  1.10534e-05  3.12578e-06       31.885 
           0      1.33333  1.35132e-05  5.24693e-06      31.8869 
           0      1.61333  1.67648e-05  6.86354e-06      31.8887 
           0         1.92  2.14179e-05  7.74052e-06      31.8904 
           0      2.25333  2.69591e-05  7.68102e-06       31.892 
           0      2.61333  2.53937e-05  5.81966e-06      31.8935 
           0            3  1.87565e-05   5.2792e-06      31.8949 
          20            0  0.000113274  4.13208e-05      31.1938 
          20     0.013333  0.000107925  4.19395e-05      31.1938 
          20     0.053333  9.15996e-05  4.38251e-05      31.1937 
          20         0.12  6.37566e-05  4.70802e-05      31.1937 
          20     0.213332   2.4827e-05  5.19319e-05      31.1936 
          20     0.333332  -2.0723e-05  5.88301e-05      31.1934 
          20         0.48 -6.03871e-05  6.84604e-05      31.1932 
          20     0.653331 -7.78915e-05  8.12881e-05       31.193 
          20     0.853332 -7.09587e-05   9.6325e-05      31.1927 
          20         1.08 -5.72502e-05  0.000110871      31.1924 
          20      1.33333 -4.83631e-05  0.000122321      31.1919 
          20      1.61333 -4.38608e-05  0.000128868      31.1914 
          20         1.92 -4.23066e-05  0.000129511      31.1908 
          20      2.25333 -3.71043e-05  0.000124585      31.1902 
          20      2.61333 -2.46754e-05  0.000115775      31.1895 
          20            3 -1.41227e-05  0.000102661      31.1886 
          40            0           -0           -0      30.4814 
          40     0.013333  1.47317e-05 -1.64058e-08      30.4814 
          40     0.053333  1.80414e-05 -2.68935e-07      30.4814 
          40         0.12  2.76123e-05 -1.20161e-06      30.4814 
          40     0.213332  4.26177e-05 -3.01925e-06      30.4814 
          40     0.333332  5.09739e-05 -5.48333e-06      30.4814 
          40         0.48  4.63441e-05 -8.44652e-06      30.4814 
          40     0.653331  3.29069e-05 -1.19032e-05      30.4814 
          40     0.853332  2.39984e-05 -1.52785e-05      30.4814 
          40         1.08   2.1576e-05 -1.80955e-05      30.4813 
          40      1.33333   2.0413e-05  -2.0212e-05      30.4813 
          40      1.61333  1.89632e-05 -2.14182e-05      30.4813 
          40         1.92  1.53546e-05 -2.17989e-05      30.4812 
          40      2.25333  1.25846e-05 -2.12224e-05      30.4811 
          40      2.61333  8.81487e-06 -2.04013e-05       30.481 
          40            3  2.34619e-06   -1.971e-05      30.4809 
          60            0           -0           -0      29.8068 
          60     0.013333  6.07655e-05 -2.01681e-08      29.8068 
          60     0.053333  0.000177741 -1.60811e-07      29.8068 
          60         0.12  0.000297743  2.08668e-07      29.8068 
          60     0.213332  0.000355091  3.20965e-06      29.8068 
          60     0.333332  0.000339624  1.10098e-05      29.8068 
          60         0.48  0.000302262  2.38806e-05      29.8068 
          60     0.653331  0.000284666  3.98787e-05      29.8068 
          60     0.853332  0.000269583  5.54346e-05      29.8068 
          60         1.08  0.000225655  6.81854e-05      29.8068 
          60      1.33333  0.000165197  7.84522e-05      29.8067 
          60      1.61333   9.9986e-05  8.68505e-05      29.8067 
          60         1.92   3.3801e-05  9.19411e-05      29.8067 
          60      2.25333 -2.16398e-05  9.28784e-05      29.8066 
          60      2.61333 -5.92952e-05   9.0471e-05      29.8066 
          60            3 -7.73069e-05  8.60772e-05      29.8065 
          80            0           -0           -0      29.1554 
          80     0.013333  3.18159e-05 -1.12487e-08      29.1554 
          80     0.053333  8.07908e-05 -1.32409e-07      29.1554 
          80         0.12  0.000144014 -3.87339e-07      29.1554 
          80     0.213332   0.00020797 -5.73845e-07      29.1554 
          80     0.333332  0.000262822 -4.61815e-07      29.1554 
          80         0.48  0.000308474   1.7076e-07      29.1554 
          80     0.653331  0.000344224  1.23276e-06      29.1554 
          80     0.853332  0.000345993   1.1117e-06      29.1554 
          80         1.08  0.000283479 -2.54693e-06      29.1554 
          80      1.33333   0.00019626 -8.98962e-06      29.1553 
          80      1.61333  0.000127562 -1.51886e-05      29.1553 
          80         1.92  5.99208e-05 -2.04042e-05      29.1553 
          80      2.25333  4.63273e-06  -2.4658e-05      29.1553 
          80      2.61333 -3.51088e-05  -2.7421e-05      29.1552 
          80            3  -6.0073e-05 -2.81543e-05      29.1552 
         100            0           -0           -0      28.5175 
         100     0.013333 -4.62126e-05  7.13266e-08      28.5175 
         100     0.053333 -0.000210663  9.04904e-07      28.5175 
         100         0.12 -0.000419006  2.98512e-06      28.5175 
         100     0.213332  -0.00056686  4.51975e-06      28.5175 
         100     0.333332 -0.000598501  2.10141e-06      28.5175 
         100         0.48  -0.00054732 -6.17278e-06      28.5175 
         100     0.653331  -0.00047215 -1.92264e-05      28.5175 
         100     0.853332 -0.000391169   -3.436e-05      28.5175 
         100         1.08 -0.000303684 -4.98867e-05      28.5175 
         100      1.33333 -0.000215363 -6.49056e-05      28.5175 
         100      1.61333 -0.000121075 -7.83624e-05      28.5175 
         100         1.92 -2.37961e-05 -8.84868e-05      28.5175 
         100      2.25333   5.6072e-05 -9.45313e-05      28.5175 
         100      2.61333  0.000110849 -9.67004e-05      28.5175 
         100            3    0.0001433 -9.49823e-05      28.5174 
         150            0 -2.87065e-20  5.08447e-26      26.9552 
         150     0.013333 -7.86605e-05 -3.44335e-07      26.9552 
         150     0.053333 -0.000224171 -5.24059e-06      26.9552 
         150         0.12 -0.000189102 -2.38821e-05      26.9552 
         150     0.213332  8.55743e-05 -6.36923e-05      26.9552 
         150     0.333332  0.000422041 -0.000124155      26.9552 
         150         0.48   0.00062829 -0.000199404      26.9552 
         150     0.653331  0.000636454 -0.000284926      26.9552 
         150     0.853332  0.000484666 -0.000377178      26.9552 
         150         1.08  0.000309062 -0.000467562      26.9552 
         150      1.33333  0.000214963 -0.000545484      26.9552 
         150      1.61333  0.000153677 -0.000605425      26.9551 
         150         1.92  6.99036e-05 -0.000641738      26.9551 
         150      2.25333  6.52156e-07 -0.000651055      26.9551 
         150      2.61333 -5.02123e-05 -0.000634371      26.9551 
         150            3 -8.64827e-05 -0.000595614      26.9551 
         200            0           -0           -0      25.4117 
         200     0.013333 -0.000106305  2.60759e-08      25.4117 
         200     0.053333 -0.000407768  1.18643e-07      25.4117 
         200         0.12 -0.000731299  -1.2742e-06      25.4117 
         200     0.213332 -0.000892013 -8.98296e-06      25.4117 
         200     0.333332 -0.000838914 -2.84465e-05      25.4117 
         200         0.48  -0.00067673 -6.09105e-05      25.4117 
         200     0.653331 -0.000524137 -0.000102656      25.4117 
         200     0.853332 -0.000408456 -0.000148218      25.4117 
         200         1.08 -0.000311169 -0.000194107      25.4117 
         200      1.33333 -0.000225576 -0.000238542      25.4117 
         200      1.61333 -0.000134889 -0.000278732      25.4117 
         200         1.92 -3.96871e-05 -0.000310007      25.4117 
         200      2.25333  4.51304e-05 -0.000329492      25.4117 
         200      2.61333  0.000111242 -0.000336209      25.4117 
         200            3  0.000157553 -0.000330321      25.4117 
         250            0           -0           -0      23.8743 
         250     0.013333 -0.000187591  8.47276e-08      23.8743 
         250     0.053333  -0.00071774  8.91733e-07      23.8743 
         250         0.12  -0.00136287  1.62547e-06      23.8743 
         250     0.213332  -0.00185165 -2.73135e-06      23.8743 
         250     0.333332   -0.0020581 -1.88494e-05      23.8743 
         250         0.48  -0.00206248 -4.99025e-05      23.8743 
         250     0.653331   -0.0020094 -9.39687e-05      23.8743 
         250     0.853332  -0.00194267 -0.000144963      23.8743 
         250         1.08  -0.00178039 -0.000194261      23.8743 
         250      1.33333  -0.00147383 -0.000235155      23.8743 
         250      1.61333  -0.00109726 -0.000267437      23.8743 
         250         1.92  -0.00069304 -0.000290386      23.8743 
         250      2.25333 -0.000302563 -0.000301708      23.8744 
         250      2.61333  4.40315e-05 -0.000301497      23.8744 
         250            3  0.000322288 -0.000290379      23.8744 
         300            0            0            0      22.3392 
         300     0.013333  7.01362e-05  2.03017e-07      22.3392 
         300     0.053333  0.000153871  3.13435e-06      22.3392 
         300         0.12  9.51183e-05  1.46646e-05      22.3392 
         300     0.213332 -0.000161875   4.0494e-05      22.3392 
         300     0.333332 -0.000498597  8.16567e-05      22.3392 
         300         0.48 -0.000749177  0.000134074      22.3392 
         300     0.653331 -0.000844436  0.000192587      22.3392 
         300     0.853332  -0.00080969  0.000253917      22.3392 
         300         1.08 -0.000701845  0.000315622      22.3392 
         300      1.33333 -0.000576672  0.000374267      22.3392 
         300      1.61333 -0.000455675  0.000425597      22.3392 
         300         1.92 -0.000317982  0.000465327      22.3392 
         300      2.25333 -0.000179345   0.00048983      22.3392 
         300      2.61333 -4.99471e-05  0.000497133      22.3392 
         300            3  6.27133e-05  0.000487121      22.3393 
         350            0            0            0      20.8049 
         350     0.013333  0.000320393 -2.25874e-07      20.8049 
         350     0.053333   0.00116366  -2.8633e-06      20.8049 
         350         0.12   0.00226249 -9.47547e-06      20.8049 
         350     0.213332    0.0031931 -1.46345e-05      20.8049 
         350     0.333332   0.00366247 -7.40682e-06      20.8049 
         350         0.48   0.00371529  2.00273e-05      20.8049 
         350     0.653331   0.00358444  6.70107e-05       20.805 
         350     0.853332   0.00340283  0.000125552       20.805 
         350         1.08   0.00310931  0.000184389       20.805 
         350      1.33333   0.00263838  0.000235598      20.8049 
         350      1.61333   0.00206634  0.000279121      20.8049 
         350         1.92   0.00144858  0.000315032      20.8049 
         350      2.25333  0.000822107  0.000340587      20.8049 
         350      2.61333  0.000225877  0.000354197      20.8048 
         350            3  -0.00029251  0.000355005      20.8048 
         400            0 -2.18436e-19 -1.09846e-27      19.2675 
         400     0.013333  -0.00030846 -9.22323e-08      19.2675 
         400     0.053333  -0.00109925 -1.87456e-06      19.2675 
         400         0.12   -0.0019215 -1.16671e-05      19.2675 
         400     0.213332   -0.0023445  -4.1019e-05      19.2675 
         400     0.333332  -0.00227308 -0.000100219      19.2675 
         400         0.48  -0.00195422 -0.000190839      19.2675 
         400     0.653331  -0.00167945 -0.000306098      19.2675 
         400     0.853332  -0.00154724 -0.000435905      19.2675 
         400         1.08  -0.00146101 -0.000569472      19.2675 
         400      1.33333  -0.00128901 -0.000696722      19.2675 
         400      1.61333   -0.0010191 -0.000810717      19.2675 
         400         1.92 -0.000717737 -0.000905571      19.2675 
         400      2.25333 -0.000407753 -0.000974271      19.2675 
         400      2.61333 -0.000107038  -0.00101154      19.2676 
         400            3  0.000158615  -0.00101452      19.2676 
         450            0            0            0      17.7312 
         450     0.013333  5.23824e-05  5.46066e-07      17.7312 
         450     0.053333 -9.66019e-07  8.11804e-06      17.7312 
         450         0.12 -0.000432996  3.60593e-05      17.7312 
         450     0.213332  -0.00123902  9.41994e-05      17.7312 
         450     0.333332  -0.00208419  0.000180643      17.7312 
         450         0.48  -0.00264279  0.000285325      17.7312 
         450     0.653331  -0.00282913  0.000400633      17.7312 
         450     0.853332   -0.0026892    0.0005261      17.7312 
         450         1.08  -0.00229147  0.000662312      17.7312 
         450      1.33333  -0.00180576  0.000801375      17.7312 
         450      1.61333  -0.00140284   0.00092899      17.7312 
         450         1.92  -0.00102247   0.00103538      17.7312 
         450      2.25333 -0.000631155   0.00111397      17.7312 
         450      2.61333 -0.000243211   0.00115888      17.7312 
         450            3  0.000109258   0.00116632      17.7313 
         500            0            0            0      16.1957 
         500     0.013333  7.09533e-05 -2.31547e-07      16.1957 
         500     0.053333  0.000286397 -3.35822e-06      16.1957 
         500         0.12  0.000701792 -1.44275e-05      16.1957 
         500     0.213332   0.00124123   -3.637e-05      16.1957 
         500     0.333332   0.00172605 -6.73269e-05      16.1957 
         500         0.48   0.00202813 -0.000102555      16.1957 
         500     0.653331    0.0021442 -0.000138426      16.1957 
         500     0.853332   0.00212592 -0.000174601      16.1957 
         500         1.08   0.00198749 -0.000213506      16.1957 
         500      1.33333   0.00172452 -0.000257102      16.1957 
         500      1.61333   0.00139544 -0.000302781      16.1957 
         500         1.92   0.00106098 -0.000344844      16.1957 
         500      2.25333  0.000719627 -0.000379374      16.1957 
         500      2.61333  0.000375358 -0.000403768      16.1957 
         500            3  5.14671e-05 -0.000416252      16.1957 
         550            0           -0           -0      14.6567 
         550     0.013333 -2.60119e-05  4.34912e-07      14.6567 
         550     0.053333 -0.000259735  6.45997e-06      14.6567 
         550         0.12 -0.000862541  2.86358e-05      14.6567 
         550     0.213332  -0.00175686  7.44214e-05      14.6567 
         550     0.333332  -0.00260182  0.000141114      14.6567 
         550         0.48  -0.00309642  0.000218554      14.6567 
         550     0.653331  -0.00319532  0.000298527      14.6567 
         550     0.853332  -0.00300691  0.000379515      14.6567 
         550         1.08  -0.00264154   0.00046258      14.6567 
         550      1.33333  -0.00221466  0.000544745      14.6567 
         550      1.61333  -0.00181535  0.000619595      14.6567 
         550         1.92  -0.00140983  0.000682461      14.6568 
         550      2.25333 -0.000976238  0.000729588      14.6568 
         550      2.61333 -0.000529238  0.000757436      14.6568 
         550            3 -0.000101976  0.000763255      14.6568 
         600            0           -0           -0        13.12 
         600     0.013333  0.000155012 -6.17683e-07        13.12 
         600     0.053333  0.000702611  -8.9891e-06        13.12 
         600         0.12   0.00178885 -3.86841e-05        13.12 
         600     0.213332   0.00320174 -9.71784e-05        13.12 
         600     0.333332   0.00443841  -0.00017815        13.12 
         600         0.48   0.00514759   -0.0002678        13.12 
         600     0.653331   0.00534056 -0.000357603        13.12 
         600     0.853332   0.00516794 -0.000449585        13.12 
         600         1.08   0.00469024 -0.000550862        13.12 
         600      1.33333   0.00398232 -0.000661917        13.12 
         600      1.61333   0.00324151 -0.000771906        13.12 
         600         1.92   0.00253751  -0.00086909        13.12 
         600      2.25333   0.00180948 -0.000947133        13.12 
         600      2.61333   0.00105246  -0.00100134      13.1199 
         600            3  0.000319087  -0.00102758      13.1199 
         650            0            0            0      11.5777 
         650     0.013333 -1.00331e-05  3.49528e-07      11.5777 
         650     0.053333 -0.000168279   5.0944e-06      11.5777 
         650         0.12 -0.000589397  2.20298e-05      11.5777 
         650     0.213332  -0.00121315  5.59604e-05      11.5777 
         650     0.333332  -0.00181115  0.000104667      11.5777 
         650         0.48  -0.00220142  0.000162067      11.5777 
         650     0.653331   -0.0023646  0.000224423      11.5777 
         650     0.853332  -0.00234389  0.000293058      11.5777 
         650         1.08  -0.00213316  0.000372223      11.5777 
         650      1.33333  -0.00175017  0.000462616      11.5777 
         650      1.61333   -0.0013368  0.000556458      11.5777 
         650         1.92 -0.000995364  0.000643092      11.5777 
         650      2.25333 -0.000676344  0.000716576      11.5778 
         650      2.61333 -0.000353323   0.00077269      11.5778 
         650            3 -4.32991e-05  0.000807731      11.5778 
         700            0  1.19653e-20  -2.4037e-27      10.0373 
         700     0.013333  2.59528e-05 -4.68625e-08      10.0373 
         700     0.053333  6.86049e-05 -6.50571e-07      10.0373 
         700         0.12  0.000137802 -2.60044e-06      10.0373 
         700     0.213332  0.000210892 -5.95637e-06      10.0373 
         700     0.333332  0.000255545 -9.90636e-06      10.0373 
         700         0.48  0.000265997 -1.36851e-05      10.0373 
         700     0.653331  0.000260773 -1.73185e-05      10.0373 
         700     0.853332  0.000253221  -2.1624e-05      10.0373 
         700         1.08  0.000230977  -2.8008e-05      10.0373 
         700      1.33333  0.000173925 -3.76375e-05      10.0373 
         700      1.61333  0.000100513  -4.9581e-05      10.0373 
         700         1.92  5.21969e-05 -6.13228e-05      10.0373 
         700      2.25333  2.01718e-05 -7.14811e-05      10.0373 
         700      2.61333 -7.40813e-06 -7.95624e-05      10.0373 
         700            3 -3.13314e-05 -8.52927e-05      10.0373 
         750            0           -0           -0      8.49538 
         750     0.013333  2.88085e-05  1.12889e-09      8.49538 
         750     0.053333  6.59242e-05  4.39988e-08      8.49538 
         750         0.12   9.8557e-05  3.94142e-07      8.49538 
         750     0.213332  0.000103334  1.73149e-06      8.49538 
         750     0.333332  7.02374e-05  4.89614e-06      8.49538 
         750         0.48  1.61669e-05  1.02074e-05      8.49538 
         750     0.653331 -3.28574e-05  1.70743e-05      8.49538 
         750     0.853332  -6.7008e-05  2.43554e-05      8.49538 
         750         1.08 -9.39022e-05  3.10866e-05      8.49538 
         750      1.33333 -0.000114025  3.73084e-05      8.49538 
         750      1.61333 -0.000114557   4.3752e-05      8.49538 
         750         1.92 -9.97252e-05   5.0484e-05      8.49538 
         750      2.25333 -8.12098e-05  5.67605e-05      8.49538 
         750      2.61333 -6.21657e-05  6.20056e-05      8.49538 
         750            3 -4.16023e-05  6.58809e-05      8.49538 
         800            0            0            0      6.95235 
         800     0.013333 -8.28757e-05  6.11392e-08      6.95235 
         800     0.053333 -0.000353187  8.07752e-07      6.95235 
         800         0.12 -0.000726732  2.89653e-06      6.95235 
         800     0.213332   -0.0010716  5.26095e-06      6.95235 
         800     0.333332  -0.00127391  4.96088e-06      6.95235 
         800         0.48  -0.00131385 -7.79106e-07      6.95235 
         800     0.653331  -0.00125857 -1.25918e-05      6.95235 
         800     0.853332  -0.00118044 -2.88384e-05      6.95235 
         800         1.08  -0.00109508  -4.6615e-05      6.95235 
         800      1.33333  -0.00097749 -6.32912e-05      6.95235 
         800      1.61333 -0.000826533 -7.81244e-05      6.95235 
         800         1.92 -0.000671046 -9.19896e-05      6.95236 
         800      2.25333 -0.000509468 -0.000104802      6.95236 
         800      2.61333 -0.000338667 -0.000115752      6.95237 
         800            3 -0.000164607 -0.000124013      6.95238 
         850            0           -0           -0      5.40905 
         850     0.013333  -7.7685e-05 -4.84406e-08      5.40905 
         850     0.053333 -0.000300264 -8.02778e-07      5.40905 
         850         0.12  -0.00053065 -4.18269e-06      5.40905 
         850     0.213332 -0.000638571 -1.31919e-05      5.40905 
         850     0.333332 -0.000577546 -3.07346e-05      5.40905 
         850         0.48  -0.00040076 -5.80399e-05      5.40905 
         850     0.653331 -0.000203426 -9.41477e-05      5.40905 
         850     0.853332 -5.30758e-05 -0.000136976      5.40905 
         850         1.08  2.69459e-05 -0.000184794      5.40905 
         850      1.33333  4.10593e-05 -0.000236486      5.40905 
         850      1.61333  2.22798e-05 -0.000290103      5.40905 
         850         1.92  1.61897e-05 -0.000342276      5.40905 
         850      2.25333  2.48898e-05 -0.000389735      5.40906 
         850      2.61333   3.8214e-05 -0.000429921      5.40906 
         850            3  5.11721e-05  -0.00046065      5.40906 
         900            0            0            0      3.86526 
         900     0.013333 -1.97106e-06 -2.66312e-07      3.86526 
         900     0.053333  4.76859e-05  -4.0317e-06      3.86526 
         900         0.12  0.000339187 -1.84582e-05      3.86526 
         900     0.213332  0.000919358 -5.01297e-05      3.86526 
         900     0.333332   0.00160766  -0.00010009      3.86526 
         900         0.48   0.00215035 -0.000163365      3.86526 
         900     0.653331   0.00241841 -0.000233626      3.86526 
         900     0.853332   0.00243123  -0.00030769      3.86527 
         900         1.08   0.00225921 -0.000385333      3.86527 
         900      1.33333   0.00198602 -0.000465392      3.86527 
         900      1.61333   0.00170632 -0.000543731      3.86526 
         900         1.92   0.00144835 -0.000616199      3.86526 
         900      2.25333   0.00117883 -0.000679581      3.86525 
         900      2.61333  0.000883776 -0.000731039      3.86524 
         900            3  0.000576064 -0.000767348      3.86523 
         950            0            0            0      2.32004 
         950     0.013333  0.000262272  2.17427e-09      2.32004 
         950     0.053333  0.000911886  2.83262e-07      2.32004 
         950         0.12   0.00169542  2.97499e-06      2.32004 
         950     0.213332   0.00230062  1.34513e-05      2.32004 
         950     0.333332    0.0025528  3.81741e-05      2.32004 
         950         0.48   0.00251308  8.04502e-05      2.32004 
         950     0.653331   0.00237299  0.000138904      2.32004 
         950     0.853332   0.00228294  0.000209404      2.32005 
         950         1.08    0.0022616  0.000286516      2.32005 
         950      1.33333   0.00220305  0.000363246      2.32005 
         950      1.61333   0.00199992  0.000432918      2.32004 
         950         1.92   0.00168936  0.000493751      2.32004 
         950      2.25333   0.00135382  0.000546082      2.32003 
         950      2.61333   0.00101456  0.000588557      2.32002 
         950            3  0.000659724  0.000618596         2.32 
        1000            0            0            0     0.773069 
        1000     0.013333 -3.21155e-05  7.55407e-08     0.773069 
        1000     0.053333 -0.000168744  1.02893e-06     0.773069 
        1000         0.12 -0.000370882  4.02081e-06     0.773069 
        1000     0.213332 -0.000556138  8.78126e-06     0.773069 
        1000     0.333332 -0.000645705  1.32911e-05     0.773069 
        1000         0.48 -0.000634365  1.56559e-05     0.773069 
        1000     0.653331 -0.000583359  1.59925e-05     0.773068 
        1000     0.853332   -0.0005417  1.64611e-05     0.773068 
        1000         1.08 -0.000495326  2.01429e-05     0.773067 
        1000      1.33333 -0.000397642  2.95466e-05     0.773067 
        1000      1.61333 -0.000253786  4.43742e-05     0.773068 
        1000         1.92 -0.000139874  6.07875e-05      0.77307 
        1000      2.25333 -6.67404e-05  7.62217e-05     0.773073 
        1000      2.61333 -1.20034e-05  8.97567e-05     0.773078 
        1000            3  4.00373e-05  0.000101323     0.773086 
