Variables = x, y, u, v, p, uu, uv, vv, rms_normUSquared

Zone, I=15600, F=POINT
         -50            0 -7.35191e-22  1.58249e-24  1.17168e-07 -6.12151e-18  2.78703e-19 -2.19421e-20 -6.14652e-18 
         -50     0.000417  9.64966e-11 -4.63615e-13  1.17168e-07  4.52089e-16  2.00916e-19 -1.37847e-20  4.52082e-16 
         -50     0.001671  3.88159e-10 -1.88914e-12  1.17168e-07  7.25914e-15 -7.06621e-20  6.03584e-21  7.25929e-15 
         -50     0.003762  8.79402e-10 -4.36868e-12  1.17168e-07   3.6215e-14 -6.42056e-19  4.41658e-20  3.62158e-14 
         -50     0.006687  1.57675e-09 -8.04642e-12  1.17168e-07  1.11894e-13  -2.0263e-18  2.28357e-19  1.11897e-13 
         -50      0.01045  2.49102e-09 -1.31269e-11  1.17168e-07  2.65546e-13 -6.81989e-18   1.1406e-18  2.65554e-13 
         -50     0.015048  3.63363e-09 -1.98579e-11  1.17168e-07  5.31784e-13 -2.40204e-17  4.56498e-18  5.31801e-13 
         -50     0.020484  5.01924e-09 -2.85537e-11  1.17168e-07  9.45801e-13 -7.72771e-17  1.48743e-17  9.45841e-13 
         -50     0.026753  6.66154e-09 -3.95824e-11  1.17167e-07  1.53917e-12 -2.17532e-16  4.12038e-17  1.53925e-12 
         -50     0.033862  8.57763e-09 -5.34021e-11  1.17167e-07  2.33849e-12 -5.40328e-16  1.00639e-16  2.33867e-12 
         -50     0.041803  1.07801e-08 -7.04994e-11  1.17167e-07  3.36028e-12 -1.20433e-15  2.22069e-16  3.36062e-12 
         -50     0.050579  1.32829e-08 -9.14062e-11  1.17167e-07  4.61196e-12 -2.45106e-15  4.51063e-16  4.61259e-12 
         -50     0.060198  1.60999e-08 -1.16668e-10  1.17167e-07  6.09079e-12 -4.62138e-15  8.55281e-16   6.0919e-12 
         -50     0.070646  1.92356e-08 -1.46822e-10  1.17166e-07  7.77955e-12 -8.15617e-15  1.52817e-15  7.78145e-12 
         -50     0.081937  2.26989e-08 -1.82833e-10  1.17166e-07  9.65527e-12 -1.36099e-14  2.59581e-15  9.65838e-12 
         -50     0.094057  2.64861e-08 -2.24968e-10  1.17166e-07   1.1682e-11 -2.16012e-14  4.19058e-15  1.16869e-11 
         -50     0.107021  3.05967e-08  -2.7398e-10  1.17166e-07  1.38224e-11 -3.28585e-14  6.59904e-15  1.38299e-11 
         -50     0.120813  3.50166e-08 -3.31764e-10  1.17166e-07  1.60305e-11 -4.80723e-14  9.99831e-15  1.60418e-11 
         -50      0.13545   3.9736e-08 -3.99177e-10  1.17166e-07  1.82651e-11 -6.79392e-14  1.46232e-14  1.82813e-11 
         -50     0.150914  4.47274e-08 -4.76256e-10  1.17166e-07  2.04812e-11 -9.30628e-14  2.08183e-14   2.0504e-11 
         -50     0.167213  4.99655e-08 -5.63376e-10  1.17167e-07  2.26422e-11 -1.23959e-13  2.89949e-14  2.26737e-11 
         -50     0.184359  5.54205e-08 -6.62127e-10  1.17167e-07  2.47181e-11 -1.60968e-13  3.95578e-14  2.47608e-11 
         -50      0.20233  6.10472e-08 -7.75405e-10  1.17168e-07   2.6682e-11 -2.04109e-13  5.28479e-14  2.67386e-11 
         -50     0.221149  6.68105e-08  -9.0643e-10   1.1717e-07    2.852e-11 -2.53269e-13  6.92925e-14  2.85937e-11 
         -50     0.240792  7.26575e-08 -1.05305e-09  1.17173e-07  3.02211e-11 -3.08103e-13  8.97063e-14  3.03161e-11 
         -50     0.261284  7.85284e-08 -1.25712e-09  1.17176e-07  3.17872e-11 -3.67486e-13  1.12534e-13  3.19059e-11 
         -50     0.282599  8.44488e-08 -1.54094e-09  1.17181e-07  3.32202e-11 -4.26933e-13  1.10402e-13  3.33377e-11 
         -50     0.304763  9.02801e-08 -1.72828e-09  1.17189e-07  3.45291e-11 -4.98798e-13  1.83025e-13  3.47203e-11 
         -50      0.32775  9.58728e-08 -1.75898e-09  1.17198e-07  3.57277e-11 -5.71426e-13  2.56978e-13  3.59939e-11 
         -50     0.351587  1.01153e-07 -1.66312e-09   1.1721e-07  3.68302e-11 -6.39356e-13  3.04849e-13  3.71453e-11 
         -50     0.376246  1.06071e-07 -1.51202e-09  1.17223e-07  3.78451e-11 -7.01313e-13  3.34107e-13  3.81905e-11 
         -50      0.40174  1.10598e-07 -1.35776e-09  1.17238e-07  3.87794e-11 -7.58163e-13  3.71372e-13   3.9163e-11 
         -50     0.428086  1.14673e-07 -1.17249e-09  1.17255e-07  3.96364e-11 -8.10267e-13   4.4396e-13  4.00935e-11 
         -50     0.455252  1.18179e-07 -8.04053e-10  1.17274e-07  4.04143e-11 -8.55425e-13  5.63271e-13  4.09916e-11 
         -50     0.483271  1.20945e-07  2.97808e-11  1.17292e-07  4.11107e-11 -8.88732e-13  7.17188e-13  4.18425e-11 
         -50     0.512109  1.22759e-07  1.66953e-09  1.17304e-07   4.1719e-11 -9.05145e-13  8.79379e-13  4.26134e-11 
         -50     0.541801  1.23475e-07  4.33162e-09  1.17303e-07  4.22329e-11 -9.07563e-13  1.05023e-12  4.32984e-11 
         -50     0.572311  1.23183e-07  7.73694e-09  1.17273e-07  4.26442e-11 -9.22446e-13  1.34314e-12  4.40025e-11 
         -50     0.603676  1.22526e-07  1.05111e-08  1.17194e-07  4.29443e-11 -1.02679e-12  2.14093e-12  4.51004e-11 
         -50     0.635857    1.192e-07  1.63962e-08  1.17137e-07   4.2863e-11 -9.75941e-13  2.54971e-12  4.54273e-11 
         -50     0.668875  1.14908e-07  2.00912e-08  1.16939e-07  4.34924e-11  -7.6881e-13  1.21572e-12  4.47218e-11 
         -50     0.702748  1.09809e-07  1.98173e-08  1.16659e-07  4.31369e-11 -5.77009e-13  1.10173e-12  4.42511e-11 
         -50     0.737438  1.03547e-07  1.55714e-08  1.16378e-07  4.21207e-11 -4.11448e-13  1.71316e-12   4.3845e-11 
         -50     0.772984  9.58403e-08  7.90717e-09  1.16162e-07  4.07196e-11 -2.77185e-13  2.65081e-12    4.338e-11 
         -50     0.809345  8.65198e-08 -2.13691e-09  1.16057e-07  3.91589e-11 -1.74547e-13  3.61361e-12  4.27805e-11 
         -50     0.846564  7.54994e-08 -1.31944e-08  1.16091e-07  3.76044e-11 -9.91907e-14    4.402e-12  4.20128e-11 
         -50     0.884597  6.28234e-08 -2.36818e-08  1.16272e-07  3.61676e-11 -4.35602e-14   4.9089e-12  4.10813e-11 
         -50     0.923489  4.86145e-08 -3.20265e-08  1.16586e-07  3.49005e-11    2.281e-15  5.11322e-12  4.00171e-11 
         -50     0.963194  3.31285e-08 -3.68167e-08  1.16999e-07  3.38062e-11  4.89421e-14  5.06275e-12  3.88712e-11 
         -50      1.00376  1.66805e-08 -3.70376e-08  1.17461e-07  3.28401e-11  1.06406e-13  4.85612e-12  3.76979e-11 
         -50      1.04514 -2.96073e-10  -3.2239e-08  1.17905e-07  3.19259e-11  1.82214e-13  4.61999e-12  3.65473e-11 
         -50      1.08735 -1.73318e-08 -2.26971e-08  1.18259e-07  3.09637e-11  2.80228e-13  4.48303e-12  3.54485e-11 
         -50      1.13042 -3.39145e-08 -9.49724e-09  1.18451e-07  2.98485e-11  3.99418e-13  4.55008e-12  3.44011e-11 
         -50      1.17431 -4.94829e-08  5.42426e-09  1.18416e-07  2.84901e-11  5.32908e-13   4.8762e-12    3.337e-11 
         -50      1.21905 -6.35229e-08  1.94613e-08  1.18116e-07  2.68286e-11  6.68584e-13  5.44523e-12  3.22791e-11 
         -50      1.26461 -7.55255e-08  2.95724e-08  1.17555e-07  2.48633e-11  7.89654e-13  6.15275e-12  3.10228e-11 
         -50      1.31103 -8.50857e-08  3.28694e-08  1.16793e-07  2.26666e-11  8.77896e-13  6.80351e-12  2.94783e-11 
         -50      1.35826 -9.18796e-08  2.73985e-08  1.15982e-07  2.04149e-11  9.17677e-13  7.11887e-12   2.7543e-11 
         -50      1.40635 -9.57419e-08  1.33402e-08  1.15383e-07  1.83989e-11  9.03319e-13  6.77006e-12  2.51787e-11 
         -50      1.45525 -9.66636e-08 -5.32295e-09   1.1541e-07  1.70491e-11  8.48958e-13  5.43587e-12  2.24945e-11 
         -50      1.50498 -9.48382e-08 -1.86695e-08  1.16662e-07  1.69376e-11  8.02296e-13  2.89518e-12  1.98418e-11 
         -50      1.55558 -9.08999e-08 -1.20165e-08  1.16817e-07  1.37474e-11   9.0675e-13  4.84213e-12  1.85979e-11 
         -50      1.60699 -8.51594e-08 -7.06306e-09  1.16901e-07  1.21146e-11  9.99981e-13  4.60067e-12  1.67225e-11 
         -50      1.65927 -7.82991e-08  -3.7773e-09  1.16973e-07  1.05906e-11  1.04744e-12  4.45255e-12  1.50492e-11 
         -50      1.71235 -7.09314e-08 -1.79886e-09  1.17035e-07  9.18986e-12  1.05759e-12  4.37456e-12  1.35694e-11 
         -50      1.76629 -6.35547e-08 -7.99336e-10  1.17087e-07  7.91997e-12  1.03827e-12  4.34576e-12  1.22698e-11 
         -50      1.82104 -5.65853e-08 -4.94675e-10  1.17131e-07  6.78858e-12  9.96577e-13  4.34808e-12    1.114e-11 
         -50      1.87666 -5.03244e-08 -6.40682e-10  1.17167e-07  5.79728e-12  9.38719e-13  4.36618e-12  1.01661e-11 
         -50      1.93309  -4.4992e-08  -1.0354e-09  1.17197e-07  4.94703e-12  8.70217e-13  4.38746e-12  9.33663e-12 
         -50      1.99034 -4.07045e-08 -1.51842e-09  1.17221e-07  4.23403e-12  7.95666e-13  4.40211e-12  8.63787e-12 
         -50      2.04847  -3.7495e-08 -1.96946e-09  1.17241e-07  3.65204e-12  7.18832e-13  4.40293e-12  8.05639e-12 
         -50       2.1074  -3.5325e-08 -2.30503e-09  1.17256e-07  3.19333e-12  6.42837e-13  4.38519e-12  7.57974e-12 
         -50      2.16721 -3.40824e-08 -2.47707e-09  1.17269e-07  2.84678e-12  5.69881e-13  4.34641e-12   7.1943e-12 
         -50      2.22781 -3.36043e-08 -2.46769e-09  1.17279e-07  2.60044e-12  5.01653e-13  4.28617e-12  6.88766e-12 
         -50      2.28928 -3.36846e-08 -2.28526e-09  1.17287e-07  2.44024e-12  4.39058e-13  4.20565e-12  6.64694e-12 
         -50      2.35156 -3.40913e-08 -1.95931e-09  1.17294e-07  2.35175e-12  3.82631e-13  4.10752e-12  6.46035e-12 
         -50       2.4147  -3.4583e-08 -1.53401e-09    1.173e-07  2.31978e-12  3.32326e-13  3.99523e-12  6.31614e-12 
         -50      2.47865 -3.49231e-08 -1.06352e-09  1.17305e-07  2.32944e-12  2.87897e-13  3.87306e-12  6.20366e-12 
         -50      2.54347 -3.48987e-08 -6.03875e-10   1.1731e-07  2.36637e-12  2.48755e-13  3.74516e-12   6.1127e-12 
         -50      2.60909 -3.43355e-08 -2.08918e-10  1.17314e-07  2.41732e-12    2.143e-13  3.61575e-12  6.03422e-12 
         -50      2.67554 -3.31122e-08  7.75319e-11  1.17318e-07  2.47068e-12  1.83847e-13  3.48821e-12     5.96e-12 
         -50      2.74287  -3.1172e-08  2.25809e-10  1.17322e-07  2.51688e-12  1.56809e-13  3.36501e-12   5.8829e-12 
         -50        2.811  -2.8537e-08  2.24714e-10  1.17325e-07  2.54861e-12   1.3281e-13   3.2476e-12   5.7971e-12 
         -50         2.88 -2.53045e-08  8.48624e-11  1.17328e-07  2.56128e-12  1.11638e-13  3.13582e-12  5.69782e-12 
         -50      2.94979 -2.16595e-08 -1.60268e-10   1.1733e-07  2.55291e-12  9.33857e-14  3.02836e-12  5.58181e-12 
         -50      3.02047  -1.7853e-08 -4.56173e-10  1.17332e-07  2.52415e-12   7.8339e-14  2.92239e-12  5.44691e-12 
         -50      3.09194 -1.42037e-08 -7.30524e-10  1.17333e-07  2.47803e-12  6.69954e-14  2.81441e-12  5.29264e-12 
         -50      3.16429 -1.10563e-08 -9.02202e-10  1.17332e-07  2.41922e-12  5.98687e-14  2.70029e-12  5.11958e-12 
         -50      3.23743 -8.76053e-09 -8.92333e-10  1.17331e-07  2.35338e-12  5.73388e-14  2.57669e-12  4.93006e-12 
         -50       3.3114 -7.60747e-09  -6.4243e-10   1.1733e-07  2.28567e-12  5.93214e-14  2.44183e-12  4.72747e-12 
         -50      3.38626 -7.77066e-09 -1.36768e-10  1.17328e-07  2.21916e-12  6.48921e-14  2.29729e-12  4.51648e-12 
         -50      3.46191 -9.21739e-09   5.6576e-10  1.17327e-07  2.15276e-12  7.17384e-14  2.15044e-12  4.30333e-12 
         -50      3.53844 -1.16035e-08   1.2955e-09  1.17327e-07  2.07812e-12  7.55116e-14  2.01649e-12  4.09485e-12 
         -50      3.61576 -1.41356e-08  1.72138e-09   1.1733e-07  1.97657e-12  6.89689e-14  1.92245e-12  3.89933e-12 
         -50      3.69396 -1.54197e-08   1.2952e-09  1.17337e-07  1.81445e-12  4.09415e-14  1.91065e-12   3.7253e-12 
         -50      3.77295 -1.42291e-08  4.99372e-11  1.17331e-07  1.73098e-12  3.53989e-14  1.79765e-12  3.52883e-12 
         -50      3.85283 -1.35448e-08  2.22572e-10  1.17266e-07     1.65e-12  3.55913e-14  1.71455e-12  3.36473e-12 
         -50      3.93349 -1.28531e-08  6.34645e-10  1.17222e-07  1.57196e-12  3.51782e-14  1.63668e-12   3.2088e-12 
         -50      4.01504 -1.22829e-08  8.15701e-10  1.17289e-07  1.49936e-12  3.50567e-14  1.56138e-12  3.06089e-12 
         -50      4.09737 -1.17375e-08  8.51361e-10  1.17328e-07  1.42963e-12  3.44444e-14  1.48961e-12  2.91938e-12 
         -50      4.18054 -1.12468e-08  8.45219e-10  1.17344e-07  1.36254e-12  3.33292e-14  1.42121e-12  2.78387e-12 
         -50       4.2646  -1.0827e-08  8.58921e-10  1.17344e-07  1.29796e-12  3.17342e-14  1.35598e-12  2.65406e-12 
         -50      4.34945 -1.04837e-08  9.20696e-10  1.17334e-07  1.23592e-12  2.97163e-14  1.29386e-12  2.52989e-12 
         -50      4.43518 -1.02127e-08  1.03391e-09  1.17318e-07  1.17634e-12   2.7353e-14  1.23461e-12  2.41106e-12 
         -50      4.52169 -1.00044e-08  1.18497e-09  1.17301e-07  1.11931e-12   2.4746e-14  1.17814e-12  2.29755e-12 
         -50      4.60909 -9.84464e-09  1.35167e-09  1.17286e-07  1.06478e-12   2.2003e-14  1.12424e-12  2.18911e-12 
         -50      4.69728 -9.71849e-09  1.50948e-09  1.17274e-07  1.01284e-12  1.92431e-14  1.07282e-12  2.08575e-12 
         -50      4.78636 -9.61105e-09   1.6382e-09  1.17268e-07   9.6343e-13   1.6577e-14  1.02368e-12   1.9872e-12 
         -50      4.87621 -9.51001e-09  1.72578e-09  1.17268e-07  9.16605e-13   1.4112e-14  9.76767e-13  1.89347e-12 
         -50      4.96691 -9.40632e-09  1.77143e-09  1.17273e-07  8.72282e-13  1.19341e-14  9.31942e-13  1.80432e-12 
         -50      5.05849 -9.29502e-09  1.78558e-09  1.17281e-07  8.30359e-13  1.01055e-14  8.89089e-13  1.71954e-12 
         -50      5.15086 -9.17536e-09  1.78747e-09  1.17289e-07  7.90779e-13  8.66059e-15  8.48182e-13  1.63905e-12 
         -50      5.24411 -9.04934e-09  1.79929e-09  1.17293e-07  7.53364e-13  7.59207e-15  8.09109e-13  1.56256e-12 
         -50      5.33815 -8.92028e-09  1.83636e-09  1.17288e-07  7.18024e-13  6.85179e-15  7.71858e-13  1.48996e-12 
         -50      5.43308 -8.78898e-09  1.89283e-09  1.17268e-07  6.84597e-13  6.34031e-15  7.36327e-13    1.421e-12 
         -50      5.52879 -8.64975e-09  1.92188e-09  1.17224e-07   6.5305e-13  5.90637e-15  7.02495e-13  1.35562e-12 
         -50       5.6254 -8.48348e-09  1.81022e-09  1.17148e-07  6.23361e-13  5.34097e-15  6.70233e-13  1.29367e-12 
         -50      5.72278 -8.59476e-09  1.91675e-09  1.17194e-07  5.95461e-13  4.87991e-15  6.39873e-13  1.23541e-12 
         -50      5.82099 -8.63182e-09  1.98699e-09  1.17234e-07  5.68767e-13  4.35548e-15  6.10868e-13  1.17971e-12 
         -50      5.92011 -8.52968e-09  2.00055e-09  1.17243e-07  5.42939e-13  3.75399e-15  5.83209e-13  1.12623e-12 
         -50         6.02 -8.33506e-09  2.00968e-09  1.17235e-07   5.1789e-13  3.01243e-15  5.56969e-13  1.07493e-12 
         -50      6.12078 -8.10152e-09  2.03317e-09  1.17221e-07  4.93562e-13  2.13657e-15  5.32054e-13  1.02569e-12 
         -50      6.22234 -7.88164e-09   2.0703e-09  1.17207e-07  4.70049e-13   1.1805e-15  5.08374e-13  9.78489e-13 
         -50       6.3248 -7.71728e-09  2.11296e-09  1.17196e-07  4.47475e-13  2.14858e-16  4.85762e-13  9.33301e-13 
         -50      6.42803 -7.63178e-09  2.15489e-09   1.1719e-07  4.26075e-13   -7.005e-16  4.64116e-13  8.90255e-13 
         -50      6.53216 -7.62061e-09   2.1979e-09  1.17183e-07  4.06039e-13 -1.55684e-15  4.43317e-13  8.49419e-13 
         -50      6.63707 -7.64347e-09  2.25384e-09  1.17169e-07  3.87536e-13 -2.43265e-15  4.23338e-13  8.10938e-13 
         -50      6.74287 -7.62906e-09   2.3247e-09  1.17144e-07  3.70542e-13 -3.44101e-15  4.04111e-13  7.74717e-13 
         -50      6.84945 -7.69325e-09  2.25789e-09  1.17146e-07   3.5508e-13 -4.07101e-15  3.85646e-13   7.4079e-13 
         -50      6.95686  -7.7103e-09   2.2695e-09  1.17144e-07  3.40603e-13 -4.88109e-15  3.67946e-13  7.08613e-13 
         -50      7.06517 -7.67167e-09  2.32468e-09  1.17136e-07  3.26689e-13  -5.7508e-15  3.51018e-13  6.77771e-13 
         -50      7.17426 -7.57117e-09  2.39843e-09  1.17123e-07  3.13061e-13 -6.58612e-15  3.34894e-13  6.48018e-13 
         -50      7.28424 -7.40574e-09  2.47407e-09  1.17106e-07  2.99526e-13 -7.32138e-15   3.1956e-13  6.19147e-13 
         -50        7.395 -7.17693e-09  2.54125e-09  1.17086e-07  2.86034e-13 -7.91343e-15  3.05028e-13   5.9112e-13 
         -50      7.50666 -6.89073e-09  2.59474e-09  1.17065e-07  2.72605e-13 -8.34296e-15  2.91261e-13   5.6392e-13 
         -50      7.61908 -6.55901e-09  2.63264e-09  1.17047e-07  2.59376e-13 -8.60932e-15  2.78246e-13  5.37672e-13 
         -50      7.73241 -6.19826e-09  2.65535e-09  1.17033e-07  2.46522e-13    -8.73e-15  2.65923e-13  5.12491e-13 
         -50      7.84651 -5.83068e-09  2.66438e-09   1.1703e-07  2.34299e-13 -8.73658e-15  2.54251e-13   4.8859e-13 
         -50      7.96145 -5.48197e-09  2.66166e-09  1.17041e-07  2.22959e-13 -8.67248e-15  2.43156e-13  4.66152e-13 
         -50      8.07729 -5.16004e-09  2.67004e-09  1.17058e-07  2.12355e-13 -8.67727e-15  2.32596e-13  4.44985e-13 
         -50      8.19389 -4.81053e-09  2.76317e-09  1.17011e-07  2.02421e-13 -8.69306e-15  2.22635e-13  4.25086e-13 
         -50      8.31141 -4.58035e-09  2.80328e-09  1.16983e-07  1.93416e-13 -8.63231e-15  2.13113e-13  4.06558e-13 
         -50      8.42969 -4.45665e-09   2.8104e-09  1.16967e-07   1.8525e-13 -8.51645e-15  2.04012e-13  3.89289e-13 
         -50      8.54887 -4.41302e-09   2.8027e-09  1.16959e-07  1.77755e-13 -8.35892e-15  1.95291e-13  3.73073e-13 
         -50      8.66882 -4.41334e-09  2.79481e-09  1.16955e-07  1.70751e-13 -8.16891e-15  1.86935e-13  3.57714e-13 
         -50      8.78968 -4.41624e-09   2.7967e-09  1.16951e-07  1.64038e-13 -7.95529e-15  1.78911e-13  3.42976e-13 
         -50      8.91131 -4.38195e-09  2.81283e-09  1.16945e-07  1.57467e-13 -7.73363e-15  1.71208e-13  3.28703e-13 
         -50      9.03384 -4.28099e-09  2.84182e-09  1.16937e-07  1.50956e-13 -7.53324e-15  1.63809e-13  3.14792e-13 
         -50      9.15713 -4.10554e-09  2.87666e-09  1.16927e-07  1.44578e-13 -7.40791e-15  1.56723e-13  3.01326e-13 
         -50      9.28126 -3.88286e-09  2.90552e-09  1.16917e-07  1.38599e-13  -7.4471e-15  1.49966e-13  2.88588e-13 
         -50       9.4063 -3.77934e-09  2.93651e-09  1.16911e-07  1.33246e-13 -7.46208e-15  1.43491e-13   2.7676e-13 
         -50       9.5321 -3.71441e-09  2.96728e-09  1.16903e-07  1.27924e-13 -7.27678e-15  1.37402e-13  2.65349e-13 
         -50      9.65882 -3.56087e-09  2.98125e-09  1.16894e-07  1.22527e-13 -7.14799e-15  1.31628e-13  2.54177e-13 
         -50      9.78629 -3.36454e-09  2.98933e-09  1.16883e-07  1.17239e-13 -7.07309e-15   1.2615e-13  2.43409e-13 
         -50      9.91468 -3.15957e-09  2.99826e-09   1.1687e-07   1.1218e-13 -7.04365e-15  1.20935e-13  2.33133e-13 
         -50      10.0438  -2.9706e-09  3.01136e-09  1.16856e-07  1.07436e-13 -7.04732e-15  1.15964e-13  2.23418e-13 
         -50      10.1739  -2.8132e-09  3.02936e-09   1.1684e-07  1.03043e-13 -7.06912e-15  1.11209e-13  2.14269e-13 
         -50      10.3047 -2.69608e-09  3.05112e-09  1.16823e-07  9.90156e-14 -7.09286e-15  1.06653e-13  2.05686e-13 
         -50      10.4363 -2.62168e-09  3.07436e-09  1.16805e-07  9.53348e-14 -7.10247e-15  1.02276e-13  1.97627e-13 
         -50      10.5689 -2.58784e-09  3.09631e-09  1.16788e-07  9.19632e-14 -7.08317e-15  9.80574e-14  1.90037e-13 
         -50      10.7022 -2.58902e-09  3.11425e-09  1.16772e-07  8.88567e-14 -7.02252e-15  9.39913e-14  1.82864e-13 
         -50      10.8365  -2.6173e-09  3.12606e-09  1.16756e-07  8.59565e-14 -6.91115e-15  9.00635e-14  1.76037e-13 
         -50      10.9715 -2.66349e-09  3.13052e-09  1.16743e-07  8.32096e-14 -6.74376e-15  8.62732e-14    1.695e-13 
         -50      11.1074 -2.71813e-09  3.12766e-09  1.16732e-07  8.05595e-14 -6.51895e-15  8.26138e-14   1.6319e-13 
         -50      11.2441 -2.77213e-09  3.11877e-09  1.16723e-07  7.79634e-14 -6.24018e-15  7.90908e-14  1.57072e-13 
         -50      11.3816 -2.81755e-09  3.10645e-09  1.16717e-07  7.53832e-14 -5.91453e-15  7.57032e-14  1.51104e-13 
         -50        11.52 -2.84784e-09   3.0943e-09  1.16713e-07  7.27999e-14 -5.55347e-15  7.24603e-14  1.45278e-13 
         -50      11.6592 -2.85818e-09   3.0865e-09  1.16709e-07   7.0204e-14 -5.17065e-15  6.93656e-14  1.39587e-13 
         -50      11.7993 -2.84526e-09  3.08714e-09  1.16705e-07  6.76001e-14 -4.78104e-15  6.64222e-14   1.3404e-13 
         -50      11.9401 -2.80696e-09  3.09927e-09  1.16699e-07  6.50097e-14 -4.39981e-15  6.36359e-14  1.28663e-13 
         -50      12.0819 -2.74155e-09  3.12371e-09  1.16688e-07  6.24578e-14 -4.03836e-15   6.1001e-14  1.23476e-13 
         -50      12.2244 -2.64676e-09  3.15741e-09  1.16669e-07  5.99795e-14 -3.70301e-15  5.85112e-14  1.18508e-13 
         -50      12.3678 -2.51795e-09  3.19172e-09  1.16638e-07  5.76011e-14 -3.38974e-15  5.61443e-14  1.13762e-13 
         -50       12.512  -2.3466e-09  3.20997e-09  1.16588e-07  5.53425e-14 -3.08134e-15  5.38704e-14  1.09229e-13 
         -50      12.6571  -2.1393e-09  3.15912e-09  1.16537e-07   5.3117e-14 -2.84194e-15  5.17466e-14  1.04878e-13 
         -50       12.803 -1.97117e-09  3.10284e-09  1.16517e-07  5.12246e-14 -2.82652e-15  4.96058e-14  1.00844e-13 
         -50      12.9498 -1.85375e-09  3.14774e-09  1.16501e-07  4.90947e-14 -2.64646e-15  4.75018e-14  9.66097e-14 
         -50      13.0973 -1.77929e-09  3.18959e-09  1.16537e-07  4.72231e-14 -2.69284e-15  4.55198e-14  9.27562e-14 
         -50      13.2457 -1.70671e-09  3.21679e-09  1.16561e-07  4.54725e-14 -2.71643e-15  4.36273e-14   8.9113e-14 
         -50       13.395 -1.64034e-09  3.23016e-09  1.16569e-07  4.38372e-14 -2.71094e-15  4.18322e-14  8.56826e-14 
         -50       13.545 -1.58595e-09    3.232e-09  1.16566e-07  4.23093e-14 -2.67235e-15  4.01243e-14  8.24465e-14 
         -50       13.696 -1.54502e-09  3.22547e-09  1.16555e-07  4.08729e-14 -2.60114e-15  3.84923e-14   7.9378e-14 
         -50      13.8477 -1.51604e-09  3.21416e-09  1.16539e-07  3.95137e-14 -2.50135e-15  3.69315e-14  7.64579e-14 
         -50      14.0004 -1.49522e-09  3.20159e-09  1.16519e-07  3.82132e-14 -2.37929e-15  3.54356e-14  7.36612e-14 
         -50      14.1537 -1.47758e-09  3.19091e-09  1.16498e-07  3.69569e-14 -2.24303e-15  3.40029e-14  7.09722e-14 
         -50      14.3081 -1.45764e-09  3.18453e-09  1.16476e-07  3.57294e-14 -2.10092e-15  3.26295e-14  6.83712e-14 
         -50      14.4631 -1.43022e-09  3.18393e-09  1.16456e-07  3.45212e-14 -1.96146e-15  3.13151e-14  6.58485e-14 
         -50       14.619 -1.39101e-09   3.1895e-09  1.16437e-07  3.33244e-14 -1.83201e-15  3.00569e-14  6.33934e-14 
         -50      14.7758 -1.33701e-09  3.20049e-09   1.1642e-07  3.21353e-14 -1.71847e-15   2.8852e-14  6.09993e-14 
         -50      14.9334   -1.267e-09  3.21507e-09  1.16405e-07  3.09569e-14 -1.62503e-15  2.76993e-14  5.86681e-14 
         -50      15.0919 -1.18151e-09   3.2305e-09  1.16392e-07  2.97935e-14 -1.55343e-15   2.6594e-14  5.63993e-14 
         -50      15.2511 -1.08304e-09  3.24347e-09   1.1638e-07  2.86556e-14 -1.50326e-15  2.55335e-14  5.42008e-14 
         -50      15.4113 -9.75516e-10  3.25053e-09  1.16369e-07  2.75537e-14 -1.47175e-15  2.45122e-14  5.20774e-14 
         -50      15.5722 -8.64229e-10  3.24874e-09  1.16358e-07  2.65017e-14 -1.45423e-15  2.35267e-14  5.00397e-14 
         -50      15.7341 -7.54651e-10  3.23642e-09  1.16347e-07  2.55099e-14 -1.44458e-15  2.25712e-14  4.80922e-14 
         -50      15.8966 -6.51942e-10  3.21425e-09  1.16335e-07  2.45871e-14 -1.43606e-15  2.16434e-14  4.62412e-14 
         -50      16.0602 -5.59142e-10  3.18632e-09  1.16321e-07  2.37324e-14 -1.42236e-15  2.07401e-14   4.4483e-14 
         -50      16.2244 -4.76009e-10   3.1617e-09  1.16307e-07  2.29361e-14 -1.39905e-15  1.98629e-14  4.28092e-14 
         -50      16.3895 -3.96628e-10    3.156e-09  1.16291e-07  2.21706e-14 -1.36529e-15  1.90156e-14  4.11963e-14 
         -50      16.5555 -3.07179e-10  3.19342e-09  1.16275e-07  2.13868e-14 -1.32591e-15  1.82075e-14  3.96046e-14 
         -50      16.7223  -2.0358e-10  3.25621e-09  1.16255e-07  2.06603e-14 -1.29487e-15    1.746e-14  3.81309e-14 
         -50        16.89 -1.64144e-10  3.16781e-09  1.16223e-07  2.01126e-14 -1.27738e-15  1.67105e-14  3.68332e-14 
         -50      17.0584 -1.16044e-10  3.14301e-09  1.16203e-07  1.94257e-14 -1.23333e-15  1.60044e-14    3.544e-14 
         -50      17.2278 -6.56538e-11  3.15227e-09  1.16192e-07  1.86672e-14 -1.17439e-15  1.53367e-14  3.40139e-14 
         -50      17.3979 -1.74232e-11   3.1746e-09  1.16185e-07  1.78887e-14  -1.1087e-15  1.47043e-14  3.26031e-14 
         -50      17.5689  2.60202e-11  3.19622e-09  1.16183e-07  1.71242e-14  -1.0413e-15  1.41032e-14  3.12376e-14 
         -50      17.7407  6.33286e-11  3.20926e-09  1.16182e-07  1.63965e-14 -9.75025e-16  1.35311e-14  2.99379e-14 
         -50      17.9133  9.43178e-11  3.21054e-09  1.16182e-07  1.57168e-14 -9.10852e-16   1.2985e-14  2.87121e-14 
         -50      18.0869   1.1959e-10   3.2004e-09  1.16181e-07  1.50881e-14 -8.48602e-16  1.24623e-14  2.75607e-14 
         -50      18.2611  1.40242e-10  3.18159e-09  1.16179e-07  1.45086e-14 -7.87536e-16  1.19618e-14  2.64806e-14 
         -50      18.4364  1.57732e-10  3.15819e-09  1.16175e-07  1.39712e-14 -7.26543e-16  1.14815e-14  2.54627e-14 
         -50      18.6123  1.73572e-10  3.13482e-09  1.16169e-07  1.34682e-14 -6.64812e-16  1.10206e-14  2.44987e-14 
         -50      18.7892  1.89246e-10  3.11564e-09  1.16161e-07  1.29902e-14  -6.0183e-16  1.05778e-14  2.35777e-14 
         -50      18.9669  2.06002e-10  3.10386e-09   1.1615e-07    1.253e-14 -5.37885e-16   1.0153e-14  2.26926e-14 
         -50      19.1454  2.24842e-10  3.10106e-09  1.16136e-07  1.20815e-14 -4.73871e-16  9.74515e-15  2.18363e-14 
         -50      19.3247  2.46409e-10  3.10691e-09  1.16119e-07  1.16427e-14 -4.11587e-16  9.35467e-15  2.10071e-14 
         -50       19.505  2.71089e-10  3.11892e-09  1.16099e-07  1.12138e-14 -3.53305e-16  8.98095e-15  2.02045e-14 
         -50      19.6859  2.98996e-10  3.13252e-09  1.16075e-07  1.07993e-14 -3.01802e-16  8.62441e-15  1.94336e-14 
         -50      19.8677  3.30205e-10  3.14122e-09  1.16046e-07  1.04062e-14 -2.59702e-16  8.28478e-15  1.87009e-14 
         -50      20.0505  3.64941e-10  3.13718e-09  1.16011e-07  1.00433e-14 -2.29039e-16  7.96172e-15   1.8015e-14 
         -50       20.234  4.03797e-10   3.1119e-09  1.15968e-07  9.72096e-15 -2.10546e-16  7.65531e-15  1.73861e-14 
         -50      20.4184  4.07536e-10  3.08438e-09  1.15965e-07  9.39892e-15  -2.0317e-16  7.35399e-15  1.67626e-14 
         -50      20.6035   4.0545e-10  3.06471e-09  1.15967e-07  9.07682e-15 -2.00675e-16  7.06088e-15  1.61473e-14 
         -50      20.7896  4.09309e-10  3.05236e-09  1.15961e-07  8.74624e-15 -1.99891e-16  6.78506e-15  1.55408e-14 
         -50      20.9765  4.19976e-10   3.0589e-09  1.15952e-07  8.40083e-15 -1.90134e-16  6.52544e-15  1.49358e-14 
         -50      21.1642  4.41077e-10   3.1067e-09  1.15944e-07  8.02872e-15 -1.56425e-16  6.28074e-15  1.43193e-14 
         -50      21.3527  4.78903e-10  3.06498e-09  1.15943e-07  7.63035e-15 -1.45073e-16  6.03918e-15  1.36791e-14 
         -50      21.5421  5.63676e-10  3.03506e-09   1.1592e-07  7.35733e-15 -1.28472e-16  5.79065e-15  1.31575e-14 
         -50      21.7323  6.68295e-10   3.0308e-09  1.15874e-07  7.15326e-15 -8.19341e-17  5.56864e-15  1.27315e-14 
         -50      21.9233  7.76386e-10  3.00237e-09  1.15804e-07   6.9335e-15 -1.77909e-17  5.35467e-15  1.22978e-14 
         -50      22.1153   8.0622e-10  2.98659e-09  1.15801e-07  6.74651e-15 -4.66058e-17   5.1136e-15  1.18697e-14 
         -50       22.308  8.24896e-10  2.99499e-09  1.15806e-07  6.53987e-15 -7.48224e-17  4.90374e-15  1.14533e-14 
         -50      22.5016  8.46196e-10  3.01101e-09  1.15805e-07  6.32163e-15 -9.01801e-17  4.71298e-15  1.10444e-14 
         -50      22.6959  8.67814e-10  3.02655e-09  1.15799e-07  6.09725e-15  -9.3369e-17  4.53559e-15  1.06428e-14 
         -50      22.8912   8.8789e-10  3.03595e-09  1.15788e-07  5.87247e-15 -8.60029e-17  4.36647e-15  1.02489e-14 
         -50      23.0872   9.0505e-10   3.0358e-09  1.15775e-07  5.65316e-15 -7.04304e-17   4.2022e-15   9.8654e-15 
         -50      23.2841  9.18575e-10  3.02484e-09  1.15759e-07  5.44342e-15 -4.95172e-17  4.04054e-15  9.49395e-15 
         -50      23.4819  9.28379e-10  3.00367e-09  1.15741e-07  5.24545e-15 -2.64066e-17  3.88069e-15  9.13603e-15 
         -50      23.6804  9.34965e-10  2.97453e-09  1.15723e-07  5.05953e-15 -4.30115e-18  3.72357e-15  8.79282e-15 
         -50      23.8799  9.39348e-10   2.9408e-09  1.15703e-07  4.88332e-15  1.39492e-17  3.57079e-15  8.46364e-15 
         -50      24.0801  9.42842e-10  2.90667e-09  1.15683e-07   4.7132e-15  2.61059e-17  3.42507e-15  8.14762e-15 
         -50      24.2813   9.4681e-10  2.87644e-09  1.15663e-07  4.54433e-15  3.10277e-17  3.28893e-15  7.84244e-15 
         -50      24.4831  9.52292e-10  2.85398e-09  1.15644e-07  4.37281e-15  2.90654e-17  3.16457e-15  7.54643e-15 
         -50       24.686  9.59574e-10  2.84184e-09  1.15625e-07  4.19674e-15  2.25894e-17  3.05233e-15  7.25806e-15 
         -50      24.8895  9.67605e-10  2.84051e-09  1.15607e-07  4.01946e-15  1.65469e-17  2.95004e-15  6.97851e-15 
         -50       25.094  9.73364e-10   2.8473e-09  1.15591e-07  3.85172e-15  1.90568e-17  2.85116e-15  6.71193e-15 
         -50      25.2992  9.71048e-10  2.85529e-09  1.15577e-07  3.71604e-15  4.20872e-17  2.74358e-15  6.46871e-15 
         -50      25.5052  9.64942e-10   2.8575e-09  1.15561e-07  3.56929e-15  8.24204e-17  2.63164e-15  6.21002e-15 
         -50      25.7123  9.94538e-10   2.8734e-09  1.15539e-07  3.39063e-15  9.33494e-17   2.5453e-15  5.94517e-15 
         -50        25.92  1.02824e-09  2.88699e-09  1.15519e-07  3.27879e-15  8.66728e-17  2.45515e-15  5.74334e-15 
         -50      26.1287   1.0545e-09  2.88424e-09    1.155e-07  3.19326e-15  7.47749e-17  2.36254e-15  5.56523e-15 
         -50       26.338  1.06881e-09  2.86034e-09  1.15478e-07  3.10806e-15  6.66993e-17  2.27023e-15  5.38762e-15 
         -50      26.5484  1.07335e-09  2.82094e-09  1.15453e-07  3.01169e-15  6.70667e-17  2.18111e-15  5.20191e-15 