Variables = x, y, u, v, p

Zone, I=400, F=POINT
         -30            0  3.60992e-16  1.32578e-21  -0.00931551 
         -30     0.000471  0.000280713  1.07454e-09  -0.00931551 
         -30     0.001884   0.00112286  4.91602e-09  -0.00931551 
         -30     0.004239   0.00252646  1.39861e-08  -0.00931551 
         -30     0.007537   0.00449214  3.38769e-08  -0.00931551 
         -30     0.011776   0.00701876  7.40677e-08   -0.0093155 
         -30     0.016958    0.0101076  1.47512e-07   -0.0093155 
         -30     0.023081    0.0137574  2.69302e-07  -0.00931549 
         -30      0.03015    0.0179714  4.56218e-07  -0.00931549 
         -30     0.038157    0.0227449  7.27088e-07  -0.00931548 
         -30     0.047107    0.0280808  1.10487e-06  -0.00931547 
         -30     0.056999    0.0339788  1.61577e-06  -0.00931546 
         -30     0.067837    0.0404413  2.28739e-06  -0.00931545 
         -30     0.079614    0.0474642  3.14879e-06  -0.00931544 
         -30     0.092332    0.0550487  4.23486e-06  -0.00931542 
         -30     0.105992    0.0631954  5.58064e-06  -0.00931541 
         -30       0.1206    0.0719078  7.22579e-06   -0.0093154 
         -30     0.136145    0.0811792   9.2103e-06  -0.00931538 
         -30     0.152631    0.0910117  1.15786e-05  -0.00931536 
         -30     0.170067      0.10141  1.43788e-05  -0.00931535 
         -30     0.188438     0.112365  1.76578e-05  -0.00931533 
         -30     0.207751      0.12388  2.14685e-05  -0.00931531 
         -30     0.228006     0.135953  2.58653e-05  -0.00931529 
         -30     0.249212     0.148588  3.09071e-05  -0.00931527 
         -30     0.271351     0.161773  3.66489e-05  -0.00931524 
         -30     0.294433      0.17551   4.3154e-05  -0.00931522 
         -30     0.318456     0.189796  5.04852e-05  -0.00931519 
         -30     0.343432     0.204632  5.87113e-05  -0.00931517 
         -30     0.369339     0.220002  6.78913e-05  -0.00931514 
         -30     0.396189     0.235907  7.80966e-05  -0.00931511 
         -30     0.423981     0.252337  8.93949e-05  -0.00931508 
         -30     0.452726     0.269292  0.000101859  -0.00931505 
         -30     0.482403     0.286748  0.000115549  -0.00931502 
         -30     0.513021     0.304699  0.000130533  -0.00931498 
         -30     0.544594     0.323139  0.000146887  -0.00931495 
         -30     0.577096     0.342037  0.000164657  -0.00931491 
         -30     0.610541     0.361382  0.000183912  -0.00931487 
         -30     0.644927     0.381153  0.000204705  -0.00931483 
         -30      0.68027     0.401333  0.000227097  -0.00931479 
         -30     0.716541     0.421879  0.000251114  -0.00931474 
         -30     0.753754     0.442769    0.0002768  -0.00931469 
         -30     0.791909     0.463969  0.000304184  -0.00931464 
         -30     0.831022      0.48545  0.000333296  -0.00931458 
         -30     0.871061     0.507153  0.000364119  -0.00931453 
         -30     0.912043     0.529042  0.000396659  -0.00931446 
         -30     0.953966     0.551066  0.000430897   -0.0093144 
         -30     0.996849     0.573183  0.000466812  -0.00931433 
         -30      1.04066     0.595316  0.000504322  -0.00931426 
         -30      1.08541     0.617415  0.000543372  -0.00931418 
         -30      1.13112     0.639422  0.000583889  -0.00931409 
         -30      1.17775     0.661254   0.00062573    -0.009314 
         -30      1.22533     0.682848  0.000668779  -0.00931391 
         -30      1.27384     0.704133  0.000712884  -0.00931381 
         -30      1.32333     0.725044  0.000757888   -0.0093137 
         -30      1.37373     0.745489  0.000803563  -0.00931359 
         -30      1.42507     0.765403  0.000849713  -0.00931347 
         -30      1.47736     0.784716  0.000896109  -0.00931334 
         -30      1.53061     0.803364  0.000942522   -0.0093132 
         -30      1.58478     0.821267   0.00098866  -0.00931306 
         -30      1.63989     0.838372   0.00103428  -0.00931291 
         -30      1.69595     0.854626   0.00107912  -0.00931275 
         -30      1.75297     0.869987   0.00112292  -0.00931258 
         -30      1.81091     0.884405   0.00116541  -0.00931241 
         -30      1.86979     0.897857   0.00120636  -0.00931223 
         -30      1.92964     0.910329   0.00124555  -0.00931204 
         -30       1.9904     0.921803   0.00128276  -0.00931184 
         -30      2.05211     0.932285   0.00131782  -0.00931163 
         -30      2.11476      0.94179   0.00135061  -0.00931142 
         -30      2.17838     0.950342   0.00138103   -0.0093112 
         -30      2.24291     0.957969   0.00140898  -0.00931097 
         -30      2.30839     0.964713   0.00143446  -0.00931074 
         -30       2.3748     0.970626   0.00145747   -0.0093105 
         -30      2.44219     0.975763   0.00147807  -0.00931025 
         -30      2.51049      0.98018   0.00149632     -0.00931 
         -30      2.57974     0.983942   0.00151233  -0.00930974 
         -30      2.64993     0.987114   0.00152624  -0.00930948 
         -30      2.72108      0.98976   0.00153822  -0.00930922 
         -30      2.79315     0.991943   0.00154842  -0.00930894 
         -30      2.86617     0.993724   0.00155702  -0.00930866 
         -30      2.94012      0.99516    0.0015642  -0.00930837 
         -30      3.01505     0.996305   0.00157014  -0.00930808 
         -30      3.09089     0.997206   0.00157499  -0.00930779 
         -30      3.16767     0.997907   0.00157894   -0.0093075 
         -30      3.24542     0.998445   0.00158212   -0.0093072 
         -30      3.32409     0.998852   0.00158467  -0.00930689 
         -30       3.4037     0.999156   0.00158672  -0.00930658 
         -30      3.48425      0.99938   0.00158836  -0.00930624 
         -30      3.56577     0.999543   0.00158969  -0.00930588 
         -30       3.6482     0.999659   0.00159076  -0.00930555 
         -30      3.73158     0.999742   0.00159165  -0.00930522 
         -30       3.8159     0.999799    0.0015924  -0.00930488 
         -30      3.90119     0.999839   0.00159303  -0.00930453 
         -30       3.9874     0.999866   0.00159356  -0.00930417 
         -30      4.07454     0.999884   0.00159412   -0.0093038 
         -30      4.16263     0.999896   0.00159456  -0.00930345 
         -30      4.25169     0.999903   0.00159503  -0.00930307 
         -30      4.34166     0.999909   0.00159547  -0.00930269 
         -30      4.43258     0.999912   0.00159592  -0.00930232 
         -30      4.52447     0.999915   0.00159639  -0.00930203 
         -30      4.61726     0.999916   0.00159695  -0.00930182 
         -30        4.711     0.999917   0.00159744   -0.0093015 
         -30      4.80569     0.999919   0.00159788  -0.00930112 
         -30      4.90135      0.99992    0.0015983   -0.0093007 
         -30      4.99791     0.999921   0.00159872  -0.00930027 
         -30      5.09542     0.999922   0.00159916  -0.00929985 
         -30      5.19387     0.999923   0.00159961  -0.00929944 
         -30       5.2933     0.999923   0.00160007  -0.00929904 
         -30      5.39364     0.999924   0.00160053  -0.00929863 
         -30      5.49491     0.999924   0.00160101  -0.00929822 
         -30      5.59713     0.999925   0.00160146  -0.00929781 
         -30      5.70033     0.999926   0.00160193  -0.00929738 
         -30      5.80443     0.999927   0.00160242  -0.00929694 
         -30      5.90948     0.999928   0.00160285   -0.0092965 
         -30      6.01551     0.999928   0.00160327  -0.00929606 
         -30      6.12244     0.999929   0.00160372  -0.00929561 
         -30      6.23031      0.99993   0.00160421  -0.00929516 
         -30      6.33912      0.99993   0.00160472  -0.00929469 
         -30      6.44892     0.999931   0.00160523  -0.00929423 
         -30      6.55962     0.999932    0.0016057  -0.00929376 
         -30      6.67126     0.999932   0.00160613   -0.0092933 
         -30      6.78384     0.999933   0.00160655  -0.00929285 
         -30      6.89741     0.999933   0.00160702  -0.00929241 
         -30      7.01187     0.999934   0.00160752  -0.00929195 
         -30      7.12728     0.999935   0.00160794  -0.00929146 
         -30      7.24363     0.999936   0.00160852    -0.009291 
         -30      7.36097     0.999936   0.00160902  -0.00929051 
         -30       7.4792     0.999937   0.00160947  -0.00929003 
         -30      7.59838     0.999937   0.00160989  -0.00928956 
         -30      7.71854     0.999937   0.00161036   -0.0092891 
         -30       7.8396     0.999939   0.00161085   -0.0092886 
         -30      7.96161     0.999939   0.00161138   -0.0092881 
         -30      8.08455      0.99994   0.00161191  -0.00928759 
         -30      8.20849      0.99994   0.00161241  -0.00928708 
         -30      8.33332     0.999941   0.00161287  -0.00928657 
         -30      8.45909     0.999941   0.00161332  -0.00928606 
         -30       8.5858     0.999942   0.00161379  -0.00928555 
         -30      8.71351     0.999943   0.00161428  -0.00928504 
         -30       8.8421     0.999943   0.00161484  -0.00928445 
         -30      8.97164     0.999943    0.0016154   -0.0092839 
         -30      9.10212     0.999944   0.00161594  -0.00928338 
         -30       9.2336     0.999945   0.00161646  -0.00928286 
         -30      9.36596     0.999946   0.00161695  -0.00928235 
         -30      9.49927     0.999946   0.00161743  -0.00928182 
         -30      9.63352     0.999947   0.00161791  -0.00928129 
         -30      9.76877     0.999947    0.0016184  -0.00928075 
         -30       9.9049     0.999947   0.00161891   -0.0092802 
         -30       10.042     0.999947   0.00161943  -0.00927965 
         -30      10.1801     0.999947   0.00161998   -0.0092791 
         -30       10.319     0.999949   0.00162052  -0.00927854 
         -30      10.4589      0.99995   0.00162103  -0.00927797 
         -30      10.5998     0.999949   0.00162154  -0.00927738 
         -30      10.7416     0.999949   0.00162209  -0.00927682 
         -30      10.8843      0.99995   0.00162254  -0.00927622 
         -30       11.028     0.999951    0.0016231  -0.00927562 
         -30      11.1726     0.999952   0.00162373  -0.00927503 
         -30      11.3182     0.999952   0.00162432  -0.00927447 
         -30      11.4647     0.999953   0.00162483  -0.00927392 
         -30      11.6122     0.999953   0.00162525  -0.00927336 
         -30      11.7605     0.999954   0.00162564   -0.0092728 
         -30      11.9099     0.999954   0.00162607  -0.00927221 
         -30      12.0602     0.999954   0.00162658   -0.0092716 
         -30      12.2114     0.999955   0.00162719  -0.00927098 
         -30      12.3636     0.999955   0.00162786  -0.00927037 
         -30      12.5167     0.999956    0.0016285  -0.00926979 
         -30      12.6707     0.999957   0.00162906  -0.00926925 
         -30      12.8257     0.999957    0.0016295  -0.00926867 
         -30      12.9817     0.999957   0.00162985  -0.00926809 
         -30      13.1386     0.999957    0.0016302  -0.00926751 
         -30      13.2964     0.999958   0.00163069  -0.00926691 
         -30      13.4551     0.999958   0.00163145  -0.00926629 
         -30      13.6149     0.999958   0.00163229  -0.00926564 
         -30      13.7755     0.999961   0.00163232  -0.00926495 
         -30      13.9371      0.99996   0.00163335  -0.00926439 
         -30      14.0996     0.999961    0.0016339  -0.00926376 
         -30      14.2631     0.999961    0.0016341  -0.00926309 
         -30      14.4275     0.999962   0.00163436  -0.00926242 
         -30      14.5928     0.999961   0.00163481  -0.00926175 
         -30      14.7592     0.999961   0.00163546  -0.00926109 
         -30      14.9264     0.999961   0.00163627  -0.00926042 
         -30      15.0946     0.999961   0.00163718  -0.00925973 
         -30      15.2637     0.999962   0.00163776  -0.00925914 
         -30      15.4338     0.999963   0.00163803  -0.00925858 
         -30      15.6048     0.999964   0.00163842  -0.00925792 
         -30      15.7767     0.999965   0.00163889  -0.00925719 
         -30      15.9496     0.999965   0.00163942  -0.00925644 
         -30      16.1235     0.999965      0.00164   -0.0092557 
         -30      16.2982     0.999965   0.00164057  -0.00925499 
         -30      16.4739     0.999965   0.00164109  -0.00925432 
         -30      16.6506     0.999964   0.00164154  -0.00925368 
         -30      16.8282     0.999964   0.00164194  -0.00925305 
         -30      17.0068     0.999965   0.00164238   -0.0092524 
         -30      17.1862     0.999966   0.00164297  -0.00925173 
         -30      17.3667     0.999966   0.00164373  -0.00925106 
         -30      17.5481     0.999965   0.00164432  -0.00925051 
         -30      17.7304     0.999968   0.00164474  -0.00924982 
         -30      17.9136     0.999968   0.00164517  -0.00924911 
         -30      18.0979     0.999967   0.00164547  -0.00924839 
         -30       18.283     0.999967   0.00164581  -0.00924769 
         -30      18.4691     0.999968   0.00164635  -0.00924701 
         -30      18.6561     0.999969    0.0016471  -0.00924633 
         -30      18.8441      0.99997   0.00164791  -0.00924562 
         -30       19.033      0.99997   0.00164846  -0.00924482 
         -30      19.2228     0.999969   0.00164837  -0.00924384 
         -30      19.4136     0.999969   0.00164921  -0.00924329 
         -30      19.6054     0.999969   0.00164999  -0.00924278 
         -30       19.798      0.99997   0.00165047  -0.00924221 
         -30      19.9917      0.99997   0.00165075   -0.0092416 
         -30      20.1862     0.999971   0.00165095  -0.00924094 
         -30      20.3818     0.999971   0.00165125  -0.00924023 
         -30      20.5782     0.999971   0.00165181  -0.00923948 
         -30      20.7756     0.999971   0.00165267  -0.00923873 
         -30       20.974     0.999971   0.00165366    -0.009238 
         -30      21.1732     0.999971    0.0016544  -0.00923732 
         -30      21.3734     0.999971   0.00165454   -0.0092367 
         -30      21.5745     0.999972   0.00165434  -0.00923606 
         -30      21.7767     0.999974   0.00165576  -0.00923526 
         -30      21.9797     0.999974   0.00165519  -0.00923479 
         -30      22.1837     0.999973   0.00165588  -0.00923406 
         -30      22.3886     0.999973   0.00165704  -0.00923323 
         -30      22.5945     0.999973   0.00165795  -0.00923243 
         -30      22.8013     0.999974   0.00165842  -0.00923167 
         -30      23.0091     0.999974   0.00165857  -0.00923094 
         -30      23.2177     0.999975   0.00165863  -0.00923022 
         -30      23.4274     0.999975   0.00165881  -0.00922948 
         -30       23.638     0.999975   0.00165926  -0.00922873 
         -30      23.8495     0.999974   0.00165997    -0.009228 
         -30       24.062     0.999974   0.00166083  -0.00922732 
         -30      24.2754     0.999973   0.00166168  -0.00922672 
         -30      24.4897     0.999973    0.0016623   -0.0092262 
         -30       24.705     0.999973    0.0016626  -0.00922571 
         -30      24.9213     0.999974    0.0016626  -0.00922515 
         -30      25.1385     0.999977   0.00166256  -0.00922435 
         -30      25.3566      0.99998   0.00166297  -0.00922305 
         -30      25.5756      0.99998   0.00166382  -0.00922232 
         -30      25.7957     0.999978   0.00166473  -0.00922209 
         -30      26.0166     0.999974   0.00166555  -0.00922188 
         -30      26.2385     0.999974   0.00166572  -0.00922164 
         -30      26.4613      0.99998   0.00166519  -0.00922079 
         -30      26.6851     0.999975   0.00166674  -0.00921936 
         -30      26.9098     0.999976   0.00166845  -0.00921891 
         -30      27.1354     0.999979   0.00166883  -0.00921865 
         -30      27.3621     0.999981   0.00166799  -0.00921776 
         -30      27.5896     0.999981   0.00166807  -0.00921693 
         -30      27.8181      0.99998   0.00166883  -0.00921615 
         -30      28.0475     0.999978   0.00166983  -0.00921542 
         -30      28.2779     0.999977   0.00167072  -0.00921474 
         -30      28.5092     0.999976   0.00167131  -0.00921408 
         -30      28.7414     0.999977    0.0016716  -0.00921343 
         -30      28.9746     0.999978   0.00167172  -0.00921279 
         -30      29.2088     0.999979   0.00167187  -0.00921214 
         -30      29.4439      0.99998   0.00167217  -0.00921149 
         -30      29.6799      0.99998   0.00167269  -0.00921082 
         -30      29.9168      0.99998   0.00167338  -0.00921015 
         -30      30.1548     0.999979    0.0016741  -0.00920947 
         -30      30.3936     0.999978    0.0016747  -0.00920879 
         -30      30.6334     0.999978   0.00167511  -0.00920809 
         -30      30.8742     0.999978    0.0016754  -0.00920741 
         -30      31.1158     0.999979   0.00167583  -0.00920675 
         -30      31.3584     0.999979   0.00167671  -0.00920617 
         -30       31.602     0.999982    0.0016765  -0.00920547 
         -30      31.8465     0.999983   0.00167711  -0.00920475 
         -30      32.0919     0.999983   0.00167781  -0.00920401 
         -30      32.3383     0.999981   0.00167832  -0.00920328 
         -30      32.5856      0.99998   0.00167861  -0.00920257 
         -30       32.834     0.999979   0.00167881  -0.00920189 
         -30      33.0831      0.99998   0.00167907  -0.00920123 
         -30      33.3333      0.99998   0.00167948  -0.00920062 
         -30      33.5843     0.999982   0.00168005  -0.00920004 
         -30      33.8364     0.999983   0.00168074  -0.00919949 
         -30      34.0894     0.999984   0.00168146  -0.00919896 
         -30      34.3433     0.999984   0.00168211  -0.00919844 
         -30      34.5981     0.999983   0.00168261  -0.00919793 
         -30       34.854     0.999982   0.00168292   -0.0091974 
         -30      35.1107     0.999981   0.00168309  -0.00919684 
         -30      35.3684      0.99998   0.00168318  -0.00919626 
         -30      35.6271     0.999981   0.00168332  -0.00919564 
         -30      35.8867     0.999982   0.00168363  -0.00919498 
         -30      36.1472     0.999984    0.0016842  -0.00919428 
         -30      36.4086     0.999986     0.001685  -0.00919353 
         -30      36.6711     0.999986   0.00168594  -0.00919275 
         -30      36.9344     0.999984   0.00168675  -0.00919193 
         -30      37.1987      0.99998   0.00168714  -0.00919105 
         -30      37.4639      0.99998   0.00168682   -0.0091901 
         -30      37.7301     0.999985    0.0016871  -0.00918913 
         -30      37.9972     0.999985   0.00168881  -0.00918877 
         -30      38.2652     0.999976   0.00168877  -0.00918873 
         -30      38.5342     0.999971   0.00168875  -0.00918787 
         -30      38.8042     0.999976   0.00168961  -0.00918802 
         -30      39.0751     0.999984   0.00169047  -0.00918851 
         -30      39.3469     0.999991   0.00169104  -0.00918886 
         -30      39.6197     0.999996   0.00169132  -0.00918763 
         -30      39.8934     0.999995   0.00169142   -0.0091861 
         -30       40.168     0.999991   0.00169157  -0.00918495 
         -30      40.4436     0.999986   0.00169187  -0.00918409 
         -30      40.7202     0.999982   0.00169231  -0.00918342 
         -30      40.9977      0.99998   0.00169285  -0.00918285 
         -30      41.2761     0.999981   0.00169338  -0.00918232 
         -30      41.5554     0.999983   0.00169384  -0.00918178 
         -30      41.8358     0.999986   0.00169419   -0.0091812 
         -30       42.117     0.999988   0.00169446  -0.00918056 
         -30      42.3992     0.999989    0.0016947  -0.00917987 
         -30      42.6823     0.999988   0.00169503  -0.00917915 
         -30      42.9664     0.999987   0.00169554  -0.00917844 
         -30      43.2514     0.999986   0.00169628  -0.00917776 
         -30      43.5373     0.999984   0.00169724  -0.00917716 
         -30      43.8243     0.999984   0.00169828  -0.00917666 
         -30      44.1121     0.999985   0.00169918  -0.00917626 
         -30      44.4009     0.999985   0.00169966  -0.00917594 
         -30      44.6906     0.999984    0.0016995  -0.00917563 
         -30      44.9813     0.999981   0.00169879  -0.00917522 
         -30      45.2729     0.999978   0.00169826  -0.00917452 
         -30      45.5654     0.999983   0.00169981  -0.00917328 
         -30      45.8589     0.999991   0.00170257  -0.00917266 
         -30      46.1534     0.999986    0.0017004  -0.00917323 
         -30      46.4488     0.999989   0.00169931  -0.00917287 
         -30      46.7451     0.999993   0.00169988  -0.00917198 
         -30      47.0423     0.999991   0.00170184  -0.00917091 
         -30      47.3406     0.999987   0.00170432  -0.00917012 
         -30      47.6397     0.999982    0.0017057  -0.00917026 
         -30      47.9398      0.99998   0.00170522  -0.00917026 
         -30      48.2409     0.999978    0.0017048   -0.0091695 
         -30      48.5428     0.999977   0.00170439  -0.00916908 
         -30      48.8457     0.999978   0.00170429  -0.00916881 
         -30      49.1496      0.99998    0.0017046  -0.00916858 
         -30      49.4545     0.999981   0.00170528  -0.00916831 
         -30      49.7602     0.999982   0.00170617  -0.00916798 
         -30      50.0668     0.999983   0.00170711  -0.00916757 
         -30      50.3744     0.999982   0.00170796  -0.00916707 
         -30      50.6831     0.999981   0.00170863  -0.00916651 
         -30      50.9926      0.99998   0.00170908   -0.0091659 
         -30       51.303      0.99998   0.00170935  -0.00916525 
         -30      51.6144      0.99998   0.00170953  -0.00916459 
         -30      51.9268     0.999981   0.00170973  -0.00916393 
         -30        52.24     0.999983   0.00171003  -0.00916333 
         -30      52.5542     0.999986   0.00171049  -0.00916279 
         -30      52.8694      0.99999   0.00171106  -0.00916235 
         -30      53.1856     0.999992   0.00171164  -0.00916202 
         -30      53.5026     0.999992   0.00171206  -0.00916181 
         -30      53.8205     0.999989   0.00171218  -0.00916165 
         -30      54.1396     0.999984   0.00171203  -0.00916144 
         -30      54.4594     0.999978   0.00171206  -0.00916097 
         -30      54.7802     0.999977    0.0017135  -0.00915989 
         -30      55.1019     0.999984   0.00171409  -0.00915945 
         -30      55.4247     0.999989    0.0017124  -0.00915969 
         -30      55.7483     0.999993   0.00171223  -0.00915933 
         -30      56.0729     0.999993   0.00171306  -0.00915886 
         -30      56.3984     0.999991   0.00171444  -0.00915852 
         -30       56.725     0.999988     0.001716  -0.00915836 
         -30      57.0523     0.999985   0.00171741  -0.00915834 
         -30      57.3807     0.999984   0.00171844  -0.00915834 
         -30      57.7099     0.999985   0.00171894  -0.00915825 
         -30      58.0403     0.999987   0.00171889  -0.00915796 
         -30      58.3714      0.99999   0.00171841  -0.00915744 
         -30      58.7035     0.999992   0.00171775   -0.0091567 
         -30      59.0367     0.999994   0.00171724  -0.00915585 
         -30      59.3707     0.999993   0.00171727  -0.00915508 
         -30      59.7056     0.999991   0.00171817  -0.00915463 
         -30      60.0414     0.999988   0.00172005  -0.00915481 
         -30      60.3784     0.999986   0.00172265  -0.00915595 
         -30      60.7161     0.999985   0.00172249  -0.00915629 
         -30      61.0548     0.999982   0.00172064  -0.00915429 
         -30      61.3944      0.99998   0.00172146  -0.00915389 
         -30      61.7351      0.99998   0.00172221  -0.00915398 
         -30      62.0767     0.999982   0.00172227  -0.00915394 
         -30      62.4191     0.999986   0.00172215  -0.00915355 
         -30      62.7625     0.999988   0.00172266  -0.00915289 
         -30       63.107     0.999989   0.00172418  -0.00915224 
         -30      63.4523     0.999988   0.00172601  -0.00915205 
         -30      63.7985     0.999992   0.00172566  -0.00915283 
         -30      64.1458     0.999989   0.00172514  -0.00915297 
         -30      64.4939     0.999993   0.00172608  -0.00915254 
         -30       64.843     0.999998   0.00172697  -0.00915196 
         -30      65.1929            1   0.00172744  -0.00915137 
         -30       65.544            1   0.00172749  -0.00915085 
         -30      65.8959     0.999997   0.00172736  -0.00915049 
         -30      66.2487     0.999993   0.00172729   -0.0091503 
         -30      66.6025      0.99999    0.0017275  -0.00915028 
         -30      66.9573     0.999988   0.00172808  -0.00915038 
         -30       67.313     0.999988   0.00172898  -0.00915053 
         -30      67.6695     0.999989   0.00173006  -0.00915066 
         -30      68.0271      0.99999   0.00173109  -0.00915071 
         -30      68.3857     0.999991   0.00173185  -0.00915064 
         -30      68.7451     0.999991   0.00173218  -0.00915045 
         -30      69.1055      0.99999   0.00173209  -0.00915016 
         -30      69.4669     0.999988   0.00173173  -0.00914983 
         -30      69.8291     0.999986   0.00173141  -0.00914956 
         -30      70.1923     0.999985   0.00173153  -0.00914941 
         -30      70.5564     0.999985   0.00173232  -0.00914938 
         -30      70.9217     0.999985   0.00173354  -0.00914938 
         -30      71.2877     0.999979   0.00173391  -0.00914906 
         -30      71.6546     0.999964   0.00173119  -0.00914801 
         -30      72.0225     0.999979   0.00173409  -0.00914892 
         -30      72.3915     0.999985   0.00173687  -0.00914961 
         -30      72.7613     0.999988   0.00173818  -0.00914984 
         -30       73.132     0.999991   0.00173776  -0.00914957 
         -30      73.5036     0.999995   0.00173623  -0.00914889 
         -30      73.8764     0.999995   0.00173475  -0.00914804 
         -30      74.2499     0.999991   0.00173448  -0.00914735 
         -30      74.6244     0.999987   0.00173588  -0.00914716 
         -30           75            1   0.00173785  -0.00914779 
