Variables = x, y, u, v, p

Zone, I=400, F=POINT
        1000            0  7.57512e-15  1.61751e-19            0 
        1000     0.000471  0.000123705  2.64141e-09 -9.40433e-19 
        1000     0.001884  0.000494838  1.05686e-08 -9.53826e-19 
        1000     0.004239   0.00111345   2.3816e-08 -2.24425e-19 
        1000     0.007537   0.00197988  4.25254e-08           -0 
        1000     0.011776   0.00309373  6.70257e-08 -5.67053e-19 
        1000     0.016958   0.00445567  9.79851e-08            0 
        1000     0.023081   0.00606536  1.36467e-07 -1.05807e-18 
        1000      0.03015   0.00792431  1.84075e-07 -8.26038e-19 
        1000     0.038157    0.0100307  2.42851e-07            0 
        1000     0.047107    0.0123861  3.15444e-07            0 
        1000     0.056999    0.0149905  4.04933e-07   -7.214e-19 
        1000     0.067837    0.0178453  5.14848e-07 -1.29936e-19 
        1000     0.079614    0.0209491  6.48948e-07 -5.91638e-19 
        1000     0.092332    0.0243028  8.11376e-07  -1.1088e-19 
        1000     0.105992    0.0279071  1.00655e-06 -1.83372e-19 
        1000       0.1206     0.031764  1.23925e-06 -7.66671e-20 
        1000     0.136145     0.035871  1.51429e-06 -7.79328e-19 
        1000     0.152631    0.0402298  1.83709e-06   -8.347e-19 
        1000     0.170067    0.0448432  2.21355e-06 -7.13103e-19 
        1000     0.188438    0.0497079  2.64945e-06 -7.70434e-20 
        1000     0.207751    0.0548262  3.15146e-06 -7.74935e-19 
        1000     0.228006    0.0601987  3.72647e-06 -1.73655e-19 
        1000     0.249212    0.0658284  4.38202e-06           -0 
        1000     0.271351    0.0717111  5.12519e-06            0 
        1000     0.294433      0.07785  5.96418e-06           -0 
        1000     0.318456    0.0842453  6.90714e-06            0 
        1000     0.343432    0.0909007  7.96315e-06 -4.17961e-19 
        1000     0.369339    0.0978108  9.14009e-06 -2.54513e-19 
        1000     0.396189     0.104979  1.04475e-05           -0 
        1000     0.423981     0.112407  1.18947e-05 -2.01911e-19 
        1000     0.452726     0.120096   1.3492e-05 -1.52919e-19 
        1000     0.482403     0.128043  1.52481e-05           -0 
        1000     0.513021     0.136249  1.71738e-05           -0 
        1000     0.544594     0.144718  1.92803e-05 -1.64047e-19 
        1000     0.577096     0.153444  2.15766e-05           -0 
        1000     0.610541     0.162431  2.40741e-05 -6.30533e-20 
        1000     0.644927     0.171678  2.67852e-05            0 
        1000      0.68027     0.181188  2.97207e-05 -7.17022e-19 
        1000     0.716541     0.190955  3.28905e-05 -2.65763e-19 
        1000     0.753754     0.200979  3.63077e-05 -8.14716e-19 
        1000     0.791909     0.211262  3.99839e-05            0 
        1000     0.831022     0.221806  4.39324e-05 -3.22198e-20 
        1000     0.871061     0.232601  4.81616e-05           -0 
        1000     0.912043      0.24365  5.26857e-05           -0 
        1000     0.953966      0.25495  5.75167e-05 -1.01989e-19 
        1000     0.996849     0.266505  6.26691e-05            0 
        1000      1.04066     0.278301  6.81503e-05 -8.53804e-19 
        1000      1.08541     0.290341  7.39736e-05           -0 
        1000      1.13112     0.302625  8.01525e-05           -0 
        1000      1.17775      0.31514  8.66941e-05 -5.87157e-19 
        1000      1.22533     0.327886  9.36131e-05            0 
        1000      1.27384     0.340858  0.000100924 -2.07692e-19 
        1000      1.32333     0.354054   0.00010864            0 
        1000      1.37373     0.367458  0.000116748 -3.76269e-19 
        1000      1.42507     0.381068  0.000125253  -4.0306e-19 
        1000      1.47736     0.394877  0.000134193           -0 
        1000      1.53061     0.408879  0.000143587 -2.68176e-19 
        1000      1.58478     0.423056  0.000153427 -2.18517e-19 
        1000      1.63989     0.437402   0.00016371            0 
        1000      1.69595     0.451905  0.000174432 -1.01397e-19 
        1000      1.75297      0.46656  0.000185596           -0 
        1000      1.81091     0.481341  0.000197197           -0 
        1000      1.86979     0.496241  0.000209247           -0 
        1000      1.92964     0.511249  0.000221758            0 
        1000       1.9904     0.526339  0.000234723 -2.60554e-19 
        1000      2.05211     0.541499  0.000248147 -5.67943e-19 
        1000      2.11476      0.55671  0.000262017 -4.02952e-19 
        1000      2.17838     0.571961  0.000276319           -0 
        1000      2.24291     0.587218  0.000291019           -0 
        1000      2.30839     0.602467  0.000306096           -0 
        1000       2.3748     0.617687  0.000321535 -4.18127e-19 
        1000      2.44219     0.632861  0.000337336 -3.52232e-19 
        1000      2.51049     0.647953  0.000353495 -1.94659e-19 
        1000      2.57974     0.662946  0.000370028           -0 
        1000      2.64993     0.677815  0.000386902           -0 
        1000      2.72108     0.692541  0.000403976 -4.75613e-19 
        1000      2.79315     0.707088  0.000421135 -6.68462e-19 
        1000      2.86617     0.721435  0.000438557 -5.98816e-19 
        1000      2.94012     0.735559  0.000456162 -5.48578e-19 
        1000      3.01505     0.749439   0.00047392  -5.1316e-19 
        1000      3.09089     0.763039  0.000491768 -4.88649e-19 
        1000      3.16767      0.77634  0.000509659 -4.71709e-19 
        1000      3.24542     0.789325  0.000527545 -4.59607e-19 
        1000      3.32409      0.80196   0.00054536 -4.50183e-19 
        1000       3.4037      0.81423  0.000563064 -4.41778e-19 
        1000      3.48425     0.826114  0.000580612 -4.33204e-19 
        1000      3.56577     0.837597   0.00059797  -4.2368e-19 
        1000       3.6482     0.848655  0.000615085 -4.12785e-19 
        1000      3.73158     0.859276  0.000631923 -4.00378e-19 
        1000       3.8159     0.869448  0.000648443 -3.86542e-19 
        1000      3.90119     0.879163  0.000664606 -3.71518e-19 
        1000       3.9874     0.888406  0.000680354 -3.55665e-19 
        1000      4.07454     0.897174  0.000695649 -3.39376e-19 
        1000      4.16263     0.905464  0.000710446 -3.23057e-19 
        1000      4.25169     0.913278  0.000724719 -3.07091e-19 
        1000      4.34166     0.920611   0.00073843 -2.91852e-19 
        1000      4.43258      0.92747  0.000751573 -2.77681e-19 
        1000      4.52447     0.933864  0.000764151 -2.64951e-19 
        1000      4.61726     0.939797  0.000776152  -2.5416e-19 
        1000        4.711     0.945283  0.000787559 -2.46014e-19 
        1000      4.80569     0.950333  0.000798287 -2.41622e-19 
        1000      4.90135     0.954966  0.000808129  -2.4271e-19 
        1000      4.99791     0.959193  0.000818282 -1.55351e-19 
        1000      5.09542     0.963035  0.000827332 -2.03479e-19 
        1000      5.19387     0.966512  0.000835457 -2.33776e-19 
        1000       5.2933     0.969644  0.000843029 -2.56389e-19 
        1000      5.39364      0.97245  0.000850183 -2.78059e-19 
        1000      5.49491     0.974953  0.000856932 -3.02703e-19 
        1000      5.59713     0.977175  0.000863232 -3.31912e-19 
        1000      5.70033     0.979137  0.000869034 -3.65526e-19 
        1000      5.80443     0.980861  0.000874309 -4.02126e-19 
        1000      5.90948     0.982367  0.000879071 -4.39649e-19 
        1000      6.01551     0.983676  0.000883367 -4.75853e-19 
        1000      6.12244     0.984807  0.000887267 -5.08727e-19 
        1000      6.23031      0.98578  0.000890852 -5.36981e-19 
        1000      6.33912     0.986611  0.000894192 -5.60295e-19 
        1000      6.44892     0.987317  0.000897339 -5.79551e-19 
        1000      6.55962     0.987913   0.00090031 -5.96887e-19 
        1000      6.67126     0.988414    0.0009031 -6.15668e-19 
        1000      6.78384     0.988832  0.000905685 -6.40203e-19 
        1000      6.89741     0.989178  0.000908046 -6.75301e-19 
        1000      7.01187     0.989464  0.000910186 -7.25507e-19 
        1000      7.12728     0.989698  0.000912155 -7.94184e-19 
        1000      7.24363     0.989888  0.000914051 -8.82161e-19 
        1000      7.36097     0.990042  0.000915985  -9.8611e-19 
        1000       7.4792     0.990164  0.000917997  -1.0963e-18 
        1000      7.59838     0.990262  0.000919881 -1.19434e-18 
        1000      7.71854     0.990341  0.000920375            0 
        1000       7.8396     0.990403  0.000921648           -0 
        1000      7.96161     0.990451  0.000923558           -0 
        1000      8.08455     0.990489  0.000925532            0 
        1000      8.20849     0.990518  0.000927331            0 
        1000      8.33332      0.99054  0.000928918            0 
        1000      8.45909     0.990557  0.000930364            0 
        1000       8.5858      0.99057  0.000931772           -0 
        1000      8.71351      0.99058  0.000933236           -0 
        1000       8.8421     0.990588  0.000934812           -0 
        1000      8.97164     0.990594  0.000936511           -0 
        1000      9.10212     0.990598  0.000938305            0 
        1000       9.2336     0.990602  0.000940139            0 
        1000      9.36596     0.990605  0.000941951            0 
        1000      9.49927     0.990607   0.00094369            0 
        1000      9.63352      0.99061  0.000945332           -0 
        1000      9.76877     0.990612   0.00094689           -0 
        1000       9.9049     0.990613  0.000948408           -0 
        1000       10.042     0.990615  0.000949955           -0 
        1000      10.1801     0.990616  0.000951608            0 
        1000       10.319     0.990617  0.000953415            0 
        1000      10.4589     0.990618   0.00095537            0 
        1000      10.5998     0.990618  0.000957388           -0 
        1000      10.7416     0.990619  0.000959294           -0 
        1000      10.8843     0.990621   0.00096084           -0 
        1000       11.028     0.990623  0.000961783            0 
        1000      11.1726     0.990627  0.000962929            0 
        1000      11.3182     0.990627  0.000965165           -0 
        1000      11.4647     0.990627  0.000967598           -0 
        1000      11.6122     0.990627  0.000969835            0 
        1000      11.7605     0.990627  0.000971792            0 
        1000      11.9099     0.990629  0.000973541            0 
        1000      12.0602      0.99063  0.000975199            0 
        1000      12.2114     0.990632  0.000976876           -0 
        1000      12.3636     0.990634  0.000978632           -0 
        1000      12.5167     0.990635  0.000980478           -0 
        1000      12.6707     0.990636  0.000982389           -0 
        1000      12.8257     0.990637  0.000984319            0 
        1000      12.9817     0.990637  0.000986226            0 
        1000      13.1386     0.990638  0.000988093            0 
        1000      13.2964     0.990639  0.000989935            0 
        1000      13.4551      0.99064  0.000991798            0 
        1000      13.6149     0.990642  0.000993745           -0 
        1000      13.7755     0.990643  0.000995824           -0 
        1000      13.9371     0.990645  0.000998047           -0 
        1000      14.0996     0.990646   0.00100036           -0 
        1000      14.2631     0.990647   0.00100261            0 
        1000      14.4275     0.990647   0.00100463            0 
        1000      14.5928     0.990647   0.00100628            0 
        1000      14.7592     0.990648   0.00100766           -0 
        1000      14.9264      0.99065   0.00100944           -0 
        1000      15.0946     0.990654    0.0010134           -0 
        1000      15.2637      0.99066   0.00102321            0 
        1000      15.4338     0.990652   0.00101121            0 
        1000      15.6048     0.990651   0.00101063           -0 
        1000      15.7767     0.990654   0.00101573           -0 
        1000      15.9496     0.990657   0.00102163           -0 
        1000      16.1235     0.990659   0.00102619            0 
        1000      16.2982      0.99066   0.00102896            0 
        1000      16.4739      0.99066   0.00103036            0 
        1000      16.6506     0.990661   0.00103117            0 
        1000      16.8282     0.990662   0.00103209           -0 
        1000      17.0068     0.990663    0.0010336           -0 
        1000      17.1862     0.990665   0.00103586           -0 
        1000      17.3667     0.990667   0.00103876           -0 
        1000      17.5481     0.990668   0.00104198            0 
        1000      17.7304     0.990668   0.00104516            0 
        1000      17.9136     0.990668   0.00104795            0 
        1000      18.0979     0.990668   0.00105018            0 
        1000       18.283     0.990668   0.00105186            0 
        1000      18.4691     0.990668    0.0010532           -0 
        1000      18.6561      0.99067   0.00105455           -0 
        1000      18.8441     0.990673   0.00105631           -0 
        1000       19.033     0.990677   0.00105874           -0 
        1000      19.2228     0.990681   0.00106186            0 
        1000      19.4136     0.990685   0.00106534            0 
        1000      19.6054     0.990685   0.00106853            0 
        1000       19.798     0.990681    0.0010707            0 
        1000      19.9917     0.990673   0.00107159           -0 
        1000      20.1862     0.990664   0.00107246           -0 
        1000      20.3818     0.990666   0.00107777            0 
        1000      20.5782     0.990699   0.00109765            0 
        1000      20.7756     0.990689   0.00107563  -2.0454e-20 
        1000       20.974     0.990685   0.00106862 -1.22232e-20 
        1000      21.1732     0.990686   0.00107132 -7.01082e-21 
        1000      21.3734     0.990688   0.00107878 -3.94365e-21 
        1000      21.5745      0.99069   0.00108753 -2.33574e-21 
        1000      21.7767     0.990692   0.00109535 -1.66112e-21 
        1000      21.9797     0.990693    0.0011011  -1.5321e-21 
        1000      22.1837     0.990692   0.00110448 -1.67606e-21 
        1000      22.3886     0.990691    0.0011058 -1.91575e-21 
        1000      22.5945      0.99069   0.00110574 -2.14914e-21 
        1000      22.8013     0.990689   0.00110516 -2.33039e-21 
        1000      23.0091     0.990689   0.00110487 -2.45339e-21 
        1000      23.2177      0.99069   0.00110555   -2.536e-21 
        1000      23.4274     0.990692    0.0011076  -2.6068e-21 
        1000       23.638     0.990695   0.00111108 -2.69386e-21 
        1000      23.8495     0.990699   0.00111576  -2.8163e-21 
        1000       24.062     0.990703   0.00112112 -2.97849e-21 
        1000      24.2754     0.990706   0.00112647 -3.16708e-21 
        1000      24.4897     0.990708   0.00113108 -3.35219e-21 
        1000       24.705     0.990709   0.00113434 -3.49164e-21 
        1000      24.9213     0.990707   0.00113591 -3.53958e-21 
        1000      25.1385     0.990705   0.00113587 -3.45956e-21 
        1000      25.3566     0.990702   0.00113483 -3.24251e-21 
        1000      25.5756     0.990699   0.00113389 -2.92973e-21 
        1000      25.7957     0.990697   0.00113451 -2.64156e-21 
        1000      26.0166     0.990698   0.00113816  -2.6127e-21 
        1000      26.2385     0.990703   0.00114573 -3.23261e-21 
        1000      26.4613     0.990711   0.00115656 -5.09435e-21 
        1000      26.6851     0.990719   0.00116705 -9.05214e-21 
        1000      26.9098     0.990719   0.00116867  -1.6278e-20 
        1000      27.1354       0.9907   0.00114547 -2.83427e-20 
        1000      27.3621     0.990712   0.00115009            0 
        1000      27.5896     0.990729   0.00116625           -0 
        1000      27.8181      0.99073   0.00117012           -0 
        1000      28.0475     0.990724   0.00116892           -0 
        1000      28.2779     0.990716   0.00116697           -0 
        1000      28.5092      0.99071   0.00116649            0 
        1000      28.7414     0.990708   0.00116827            0 
        1000      28.9746     0.990708   0.00117216            0 
        1000      29.2088     0.990712   0.00117755            0 
        1000      29.4439     0.990717   0.00118361           -0 
        1000      29.6799     0.990722   0.00118956           -0 
        1000      29.9168     0.990727   0.00119477           -0 
        1000      30.1548      0.99073   0.00119889           -0 
        1000      30.3936     0.990732    0.0012018           -0 
        1000      30.6334     0.990731   0.00120365           -0 
        1000      30.8742     0.990729   0.00120475            0 
        1000      31.1158     0.990726   0.00120554            0 
        1000      31.3584     0.990724   0.00120648            0 
        1000       31.602     0.990721   0.00120798            0 
        1000      31.8465     0.990721   0.00121035            0 
        1000      32.0919     0.990722    0.0012137           -0 
        1000      32.3383     0.990726   0.00121798           -0 
        1000      32.5856     0.990731   0.00122293           -0 
        1000       32.834     0.990738   0.00122815           -0 
        1000      33.0831     0.990743   0.00123313           -0 
        1000      33.3333     0.990747   0.00123736           -0 
        1000      33.5843     0.990747   0.00124046            0 
        1000      33.8364     0.990742   0.00124226            0 
        1000      34.0894     0.990732   0.00124292            0 
        1000      34.3433     0.990718   0.00124304            0 
        1000      34.5981     0.990704   0.00124367           -0 
        1000       34.854     0.990699   0.00124629           -0 
        1000      35.1107     0.990716   0.00125263           -0 
        1000      35.3684     0.990777   0.00126437            0 
        1000      35.6271     0.990807   0.00127825            0 
        1000      35.8867     0.990766   0.00128111            0 
        1000      36.1472     0.990743   0.00127793           -0 
        1000      36.4086     0.990731   0.00127293           -0 
        1000      36.6711     0.990728   0.00126872           -0 
        1000      36.9344     0.990729   0.00126665            0 
        1000      37.1987     0.990733   0.00126721            0 
        1000      37.4639     0.990738   0.00127025            0 
        1000      37.7301     0.990742   0.00127527            0 
        1000      37.9972     0.990746   0.00128156            0 
        1000      38.2652     0.990749   0.00128839           -0 
        1000      38.5342     0.990751   0.00129509           -0 
        1000      38.8042     0.990752   0.00130113           -0 
        1000      39.0751     0.990754   0.00130616           -0 
        1000      39.3469     0.990755   0.00131002           -0 
        1000      39.6197     0.990756   0.00131275           -0 
        1000      39.8934     0.990757   0.00131455            0 
        1000       40.168     0.990758   0.00131574            0 
        1000      40.4436     0.990759    0.0013167            0 
        1000      40.7202      0.99076   0.00131787            0 
        1000      40.9977      0.99076   0.00131962            0 
        1000      41.2761     0.990759   0.00132227            0 
        1000      41.5554     0.990757   0.00132598           -0 
        1000      41.8358     0.990755   0.00133079           -0 
        1000       42.117     0.990752   0.00133657           -0 
        1000      42.3992     0.990748   0.00134299           -0 
        1000      42.6823     0.990746   0.00134962           -0 
        1000      42.9664     0.990745   0.00135592           -0 
        1000      43.2514     0.990748   0.00136131            0 
        1000      43.5373     0.990754   0.00136532            0 
        1000      43.8243     0.990766   0.00136767            0 
        1000      44.1121     0.990781   0.00136842            0 
        1000      44.4009     0.990799    0.0013682            0 
        1000      44.6906     0.990816   0.00136834           -0 
        1000      44.9813     0.990822   0.00137114           -0 
        1000      45.2729     0.990805   0.00138012           -0 
        1000      45.5654     0.990746   0.00140019            0 
        1000      45.8589     0.990614   0.00143799            0 
        1000      46.1534     0.990682   0.00138036  -5.0645e-18 
        1000      46.4488     0.990738   0.00136355  -3.7837e-18 
        1000      46.7451     0.990779   0.00136882 -2.79632e-18 
        1000      47.0423     0.990803    0.0013831 -2.04131e-18 
        1000      47.3406     0.990812   0.00139846 -1.46713e-18 
        1000      47.6397     0.990811   0.00141068 -1.03168e-18 
        1000      47.9398     0.990802   0.00141822 -7.00079e-19 
        1000      48.2409     0.990789   0.00142122 -4.44634e-19 
        1000      48.5428     0.990776   0.00142084 -2.44145e-19 
        1000      48.8457     0.990764   0.00141863 -8.24646e-20 
        1000      49.1496     0.990756   0.00141619  5.18774e-20 
        1000      49.4545     0.990751   0.00141485  1.66592e-19 
        1000      49.7602     0.990751   0.00141553  2.66192e-19 
        1000      50.0668     0.990754   0.00141869  3.52953e-19 
        1000      50.3744      0.99076    0.0014243   4.2738e-19 
        1000      50.6831     0.990767   0.00143194  4.88876e-19 
        1000      50.9926     0.990774   0.00144089  5.36199e-19 
        1000       51.303      0.99078   0.00145027  5.68108e-19 
        1000      51.6144     0.990784   0.00145915  5.83686e-19 
        1000      51.9268     0.990786   0.00146672  5.82732e-19 
        1000        52.24     0.990784   0.00147235   5.6606e-19 
        1000      52.5542     0.990781   0.00147574   5.3572e-19 
        1000      52.8694     0.990776   0.00147689  4.95123e-19 
        1000      53.1856     0.990771   0.00147618  4.49074e-19 
        1000      53.5026     0.990767   0.00147427  4.03807e-19 
        1000      53.8205     0.990766   0.00147206  3.66719e-19 
        1000      54.1396     0.990767   0.00147055  3.46196e-19 
        1000      54.4594     0.990773   0.00147071  3.51258e-19 
        1000      54.7802     0.990782   0.00147329  3.91024e-19 
        1000      55.1019     0.990793   0.00147865  4.74151e-19 
        1000      55.4247     0.990805   0.00148665  6.08152e-19 
        1000      55.7483     0.990814   0.00149653  7.98284e-19 
        1000      56.0729     0.990817   0.00150688  1.04684e-18 
        1000      56.3984     0.990812   0.00151581  1.35181e-18 
        1000       56.725     0.990796    0.0015212  1.70569e-18 
        1000      57.0523     0.990768   0.00152125  2.09344e-18 
        1000      57.3807     0.990734   0.00151525  2.49163e-18 
        1000      57.7099     0.990704    0.0015048  2.86605e-18 
        1000      58.0403     0.990699   0.00149543  3.16983e-18 
        1000      58.3714     0.990754   0.00149877   3.3408e-18 
        1000      58.7035     0.990924   0.00153535  3.29969e-18 
        1000      59.0367     0.990742    0.0015539            0 
        1000      59.3707     0.990632   0.00155612            0 
        1000      59.7056     0.990706   0.00156443           -0 
        1000      60.0414     0.990835   0.00157403           -0 
        1000      60.3784     0.990945   0.00158217           -0 
        1000      60.7161     0.991002   0.00158759           -0 
        1000      61.0548     0.990998    0.0015901            0 
        1000      61.3944     0.990941   0.00159015            0 
        1000      61.7351     0.990851   0.00158857            0 
        1000      62.0767     0.990748   0.00158632            0 
        1000      62.4191     0.990653   0.00158434            0 
        1000      62.7625     0.990583   0.00158339            0 
        1000       63.107     0.990547     0.001584           -0 
        1000      63.4523      0.99055   0.00158646           -0 
        1000      63.7985     0.990591   0.00159079           -0 
        1000      64.1458     0.990663   0.00159678           -0 
        1000      64.4939     0.990755   0.00160402           -0 
        1000       64.843     0.990853   0.00161198           -0 
        1000      65.1929     0.990945   0.00162008           -0 
        1000       65.544     0.991017   0.00162773           -0 
        1000      65.8959      0.99106   0.00163441            0 
        1000      66.2487     0.991067    0.0016397            0 
        1000      66.6025     0.991037   0.00164339            0 
        1000      66.9573     0.990971   0.00164542            0 
        1000       67.313     0.990879   0.00164596            0 
        1000      67.6695     0.990771   0.00164537            0 
        1000      68.0271     0.990663   0.00164417            0 
        1000      68.3857     0.990569     0.001643           -0 
        1000      68.7451     0.990505   0.00164258           -0 
        1000      69.1055     0.990483   0.00164358           -0 
        1000      69.4669     0.990511   0.00164659           -0 
        1000      69.8291     0.990589     0.001652           -0 
        1000      70.1923      0.99071   0.00165991           -0 
        1000      70.5564     0.990857    0.0016701           -0 
        1000      70.9217     0.991005   0.00168193            0 
        1000      71.2877     0.991124   0.00169437            0 
        1000      71.6546      0.99118   0.00170605            0 
        1000      72.0225     0.991148   0.00171536            0 
        1000      72.3915     0.991018    0.0017207            0 
        1000      72.7613     0.990815   0.00172076            0 
        1000       73.132     0.990612   0.00171505           -0 
        1000      73.5036     0.990567   0.00170451           -0 
        1000      73.8764     0.990949   0.00169236           -0 
        1000      74.2499     0.992181   0.00168522           -0 
        1000      74.6244     0.994896   0.00169445            0 
        1000           75            1   0.00173785            0 
