Variables = x, y, u, v, p

Zone, I=800, F=POINT
         850            0           -0           -0 -2.59832e-05 
         850     0.000117  3.56464e-05  8.82816e-13 -2.59831e-05 
         850     0.000469   0.00014289  1.41253e-11 -2.59831e-05 
         850     0.001056  0.000321732  7.15549e-11  -2.5983e-05 
         850     0.001879  0.000572476  2.26488e-10 -2.59829e-05 
         850     0.002936  0.000894513  5.52902e-10 -2.59828e-05 
         850     0.004228   0.00128815  1.14651e-09 -2.59826e-05 
         850     0.005755   0.00175338  2.12412e-09 -2.59824e-05 
         850     0.007518   0.00229051  3.62479e-09 -2.59822e-05 
         850     0.009515   0.00289894  5.80617e-09 -2.59819e-05 
         850     0.011746   0.00357866  8.84808e-09 -2.59817e-05 
         850     0.014214   0.00433059  1.29569e-08 -2.59813e-05 
         850     0.016915    0.0051535   1.8349e-08  -2.5981e-05 
         850     0.019853   0.00604862  2.52768e-08 -2.59806e-05 
         850     0.023023   0.00701443  3.39935e-08 -2.59802e-05 
         850     0.026431   0.00805275  4.48025e-08 -2.59798e-05 
         850     0.030075   0.00916297  5.80083e-08 -2.59793e-05 
         850      0.03395    0.0103436  7.39201e-08 -2.59788e-05 
         850     0.038063    0.0115967  9.29167e-08 -2.59783e-05 
         850     0.042408    0.0129205  1.15342e-07 -2.59777e-05 
         850     0.046991    0.0143168  1.41621e-07 -2.59771e-05 
         850     0.051805    0.0157835  1.72126e-07 -2.59765e-05 
         850     0.056859    0.0173233  2.07352e-07 -2.59759e-05 
         850     0.062143    0.0189331  2.47685e-07 -2.59752e-05 
         850     0.067666    0.0206158  2.93672e-07 -2.59745e-05 
         850     0.073425    0.0223704  3.45793e-07 -2.59737e-05 
         850     0.079413    0.0241948  4.04499e-07  -2.5973e-05 
         850     0.085642    0.0260925  4.70451e-07 -2.59722e-05 
         850       0.0921    0.0280601  5.44084e-07 -2.59713e-05 
         850     0.098799     0.030101  6.26121e-07 -2.59705e-05 
         850     0.105727    0.0322117   7.1702e-07 -2.59696e-05 
         850     0.112896    0.0343959  8.17566e-07 -2.59687e-05 
         850       0.1203    0.0366516  9.28331e-07 -2.59677e-05 
         850     0.127932    0.0389767  1.04987e-06 -2.59667e-05 
         850     0.135806    0.0413756   1.1831e-06 -2.59657e-05 
         850     0.143909    0.0438442  1.32851e-06 -2.59647e-05 
         850     0.152253    0.0463862  1.48704e-06 -2.59636e-05 
         850     0.160825    0.0489976  1.65922e-06 -2.59625e-05 
         850     0.169639    0.0516827  1.84608e-06 -2.59614e-05 
         850     0.178688    0.0544394   2.0483e-06 -2.59602e-05 
         850     0.187965    0.0572655  2.26652e-06  -2.5959e-05 
         850     0.197484    0.0601652  2.50191e-06 -2.59578e-05 
         850      0.20723     0.063134  2.75495e-06 -2.59565e-05 
         850      0.21722    0.0661771  3.02698e-06 -2.59553e-05 
         850     0.227436    0.0692889  3.31839e-06 -2.59539e-05 
         850     0.237895    0.0724746   3.6306e-06 -2.59526e-05 
         850     0.248581    0.0757293  3.96407e-06 -2.59512e-05 
         850      0.25951    0.0790579  4.32026e-06 -2.59498e-05 
         850     0.270675    0.0824582  4.69996e-06 -2.59484e-05 
         850     0.282065    0.0859268  5.10377e-06 -2.59469e-05 
         850       0.2937    0.0894699  5.53342e-06 -2.59454e-05 
         850      0.30556    0.0930812  5.98922e-06 -2.59439e-05 
         850     0.317665    0.0967669    6.473e-06 -2.59423e-05 
         850     0.329995     0.100521  6.98507e-06 -2.59407e-05 
         850     0.342569     0.104349   7.5273e-06 -2.59391e-05 
         850     0.355379     0.108248  8.10051e-06 -2.59374e-05 
         850     0.368414     0.112215  8.70533e-06 -2.59357e-05 
         850     0.381693     0.116257   9.3438e-06  -2.5934e-05 
         850     0.395198     0.120366  1.00162e-05 -2.59323e-05 
         850     0.408948     0.124549  1.07248e-05 -2.59305e-05 
         850     0.422921       0.1288  1.14696e-05 -2.59287e-05 
         850     0.437141     0.133125   1.2253e-05 -2.59268e-05 
         850     0.451585     0.137518  1.30752e-05 -2.59249e-05 
         850     0.466275     0.141984  1.39387e-05  -2.5923e-05 
         850       0.4812     0.146521  1.48441e-05 -2.59211e-05 
         850     0.496348     0.151125   1.5792e-05 -2.59191e-05 
         850     0.511744     0.155803  1.67853e-05 -2.59171e-05 
         850     0.527361     0.160546  1.78235e-05 -2.59151e-05 
         850     0.543227     0.165365    1.891e-05  -2.5913e-05 
         850     0.559314     0.170248  2.00442e-05 -2.59109e-05 
         850      0.57565     0.175206  2.12293e-05 -2.59088e-05 
         850      0.59222     0.180233  2.24659e-05 -2.59066e-05 
         850     0.609012     0.185325  2.37545e-05 -2.59044e-05 
         850     0.626053     0.190491  2.50984e-05 -2.59022e-05 
         850     0.643315     0.195722  2.64969e-05 -2.58999e-05 
         850     0.660826     0.201026  2.79537e-05 -2.58976e-05 
         850     0.678557     0.206393  2.94678e-05 -2.58953e-05 
         850     0.696538     0.211834  3.10435e-05  -2.5893e-05 
         850     0.714754     0.217342   3.2681e-05 -2.58906e-05 
         850      0.73319     0.222914  3.43802e-05 -2.58881e-05 
         850     0.751876     0.228557  3.61456e-05 -2.58857e-05 
         850     0.770782     0.234263  3.79758e-05 -2.58832e-05 
         850     0.789937      0.24004   3.9875e-05 -2.58807e-05 
         850     0.809313      0.24588  4.18421e-05 -2.58781e-05 
         850     0.828939     0.251789  4.38814e-05 -2.58755e-05 
         850     0.848784      0.25776  4.59914e-05 -2.58729e-05 
         850      0.86888       0.2638  4.81768e-05 -2.58703e-05 
         850     0.889212     0.269906  5.04377e-05 -2.58676e-05 
         850     0.909761      0.27607  5.27734e-05 -2.58649e-05 
         850     0.930563     0.282303  5.51896e-05 -2.58621e-05 
         850     0.951582     0.288594  5.76835e-05 -2.58594e-05 
         850     0.972854     0.294953  6.02611e-05 -2.58565e-05 
         850     0.994343     0.301368  6.29193e-05 -2.58537e-05 
         850      1.01608      0.30785  6.56641e-05 -2.58508e-05 
         850      1.03806     0.314392   6.8495e-05 -2.58479e-05 
         850      1.06025      0.32099  7.14109e-05 -2.58449e-05 
         850       1.0827     0.327651  7.44179e-05 -2.58419e-05 
         850      1.10536     0.334366  7.75127e-05 -2.58388e-05 
         850      1.12828     0.341143  8.07015e-05 -2.58357e-05 
         850      1.15142     0.347972  8.39808e-05 -2.58326e-05 
         850       1.1748     0.354862  8.73567e-05 -2.58294e-05 
         850      1.19842     0.361807  9.08284e-05 -2.58262e-05 
         850      1.22226       0.3688  9.43941e-05 -2.58229e-05 
         850      1.24635     0.375851  9.80606e-05 -2.58196e-05 
         850      1.27066     0.382948  0.000101823 -2.58162e-05 
         850      1.29522     0.390102   0.00010569 -2.58128e-05 
         850         1.32       0.3973  0.000109654 -2.58093e-05 
         850      1.34503     0.404551  0.000113725 -2.58058e-05 
         850      1.37028     0.411843  0.000117896 -2.58022e-05 
         850      1.39578     0.419187  0.000122175 -2.57986e-05 
         850      1.42152     0.426574  0.000126559  -2.5795e-05 
         850      1.44747     0.433999  0.000131046 -2.57912e-05 
         850      1.47368     0.441471  0.000135643 -2.57874e-05 
         850       1.5001     0.448976  0.000140343 -2.57835e-05 
         850      1.52677     0.456525  0.000145153 -2.57794e-05 
         850      1.55367     0.464104  0.000150069 -2.57754e-05 
         850      1.58081     0.471724  0.000155101 -2.57714e-05 
         850       1.6082     0.479377  0.000160244 -2.57674e-05 
         850      1.63579     0.487054  0.000165493 -2.57634e-05 
         850      1.66364     0.494767  0.000170855 -2.57593e-05 
         850      1.69171       0.5025  0.000176323 -2.57551e-05 
         850      1.72003     0.510264  0.000181904 -2.57508e-05 
         850      1.74857     0.518045   0.00018759 -2.57465e-05 
         850      1.77736     0.525853  0.000193388 -2.57421e-05 
         850      1.80636     0.533672   0.00019929 -2.57375e-05 
         850      1.83563     0.541514  0.000205305 -2.57328e-05 
         850      1.86512      0.54937  0.000211426 -2.57281e-05 
         850      1.89484      0.55723  0.000217649 -2.57232e-05 
         850       1.9248     0.565105  0.000223983 -2.57182e-05 
         850      1.95498      0.57298  0.000230416 -2.57131e-05 
         850      1.98542     0.580865  0.000236958 -2.57079e-05 
         850      2.01607     0.588744  0.000243597 -2.57026e-05 
         850      2.04698     0.596627  0.000250342 -2.56972e-05 
         850      2.07812     0.604505  0.000257186 -2.56918e-05 
         850      2.10947      0.61237  0.000264123 -2.56862e-05 
         850      2.14109      0.62023   0.00027116 -2.56806e-05 
         850      2.17291      0.62807  0.000278285 -2.56749e-05 
         850      2.20499       0.6359  0.000285506 -2.56691e-05 
         850      2.23728     0.643704   0.00029281 -2.56632e-05 
         850      2.26984     0.651491  0.000300205 -2.56573e-05 
         850      2.30263     0.659252  0.000307682 -2.56513e-05 
         850      2.33562     0.666978  0.000315232 -2.56452e-05 
         850      2.36888     0.674678  0.000322863  -2.5639e-05 
         850      2.40235     0.682335  0.000330561 -2.56327e-05 
         850      2.43608      0.68996  0.000338333 -2.56263e-05 
         850      2.47002     0.697537  0.000346163 -2.56199e-05 
         850      2.50421     0.705074   0.00035406 -2.56132e-05 
         850      2.53862     0.712556  0.000362007 -2.56065e-05 
         850      2.57329     0.719991  0.000370012 -2.55996e-05 
         850      2.60819     0.727371  0.000378064 -2.55926e-05 
         850       2.6433     0.734686  0.000386153 -2.55854e-05 
         850      2.67868     0.741945  0.000394286 -2.55781e-05 
         850      2.71426     0.749132  0.000402446 -2.55706e-05 
         850       2.7501     0.756256  0.000410641 -2.55628e-05 
         850      2.78615     0.763302  0.000418854  -2.5555e-05 
         850      2.82247     0.770278  0.000427091 -2.55469e-05 
         850      2.85902     0.777176  0.000435341 -2.55386e-05 
         850      2.89577     0.783986  0.000443593 -2.55302e-05 
         850      2.93279     0.790716  0.000451854 -2.55215e-05 
         850      2.97002     0.797354  0.000460104 -2.55127e-05 
         850       3.0075     0.803906  0.000468353 -2.55037e-05 
         850       3.0452     0.810358   0.00047658 -2.54946e-05 
         850      3.08316      0.81672  0.000484793 -2.54853e-05 
         850      3.12135     0.822982  0.000492979  -2.5476e-05 
         850      3.15975     0.829137  0.000501124 -2.54665e-05 
         850      3.19842     0.835192  0.000509237 -2.54569e-05 
         850      3.23728     0.841136  0.000517297 -2.54472e-05 
         850      3.27642     0.846975   0.00052531 -2.54375e-05 
         850      3.31576     0.852699  0.000533258 -2.54277e-05 
         850      3.35536     0.858313  0.000541145 -2.54178e-05 
         850      3.39517     0.863808  0.000548954 -2.54078e-05 
         850      3.43525      0.86919  0.000556691 -2.53976e-05 
         850      3.47555     0.874453  0.000564343 -2.53873e-05 
         850      3.51607     0.879592    0.0005719 -2.53766e-05 
         850      3.55685     0.884614  0.000579369 -2.53655e-05 
         850      3.59783     0.889509  0.000586736 -2.53537e-05 
         850      3.63908     0.894284  0.000594012 -2.53411e-05 
         850      3.68053     0.898931  0.000601185 -2.53274e-05 
         850      3.72225     0.903456  0.000608272 -2.53121e-05 
         850      3.76421     0.907855  0.000615233 -2.52976e-05 
         850      3.80636     0.912124   0.00062201  -2.5287e-05 
         850      3.84879     0.916271  0.000628678 -2.52758e-05 
         850      3.89142      0.92029  0.000635217  -2.5264e-05 
         850      3.93431     0.924185  0.000641632 -2.52519e-05 
         850      3.97741     0.927953  0.000647908 -2.52394e-05 
         850      4.02077     0.931598  0.000654049 -2.52266e-05 
         850      4.06434     0.935116  0.000660041 -2.52138e-05 
         850      4.10817     0.938513  0.000665891 -2.52008e-05 
         850      4.15224     0.941788   0.00067159 -2.51877e-05 
         850      4.19651     0.944939  0.000677131 -2.51747e-05 
         850      4.24106     0.947972  0.000682522 -2.51616e-05 
         850       4.2858     0.950884  0.000687752 -2.51485e-05 
         850      4.33081     0.953681  0.000692828 -2.51354e-05 
         850      4.37602     0.956361  0.000697741 -2.51224e-05 
         850       4.4215      0.95893  0.000702499 -2.51093e-05 
         850      4.46721     0.961388  0.000707099 -2.50962e-05 
         850      4.51313     0.963736  0.000711535  -2.5083e-05 
         850      4.55931     0.965978  0.000715817 -2.50697e-05 
         850       4.6057     0.968114  0.000719938 -2.50563e-05 
         850      4.65235      0.97015  0.000723905 -2.50428e-05 
         850      4.69921     0.972086  0.000727715 -2.50291e-05 
         850      4.74633     0.973926  0.000731374 -2.50152e-05 
         850      4.79369     0.975673  0.000734881 -2.50011e-05 
         850      4.84125     0.977327  0.000738235 -2.49867e-05 
         850      4.88908     0.978894  0.000741445 -2.49721e-05 
         850      4.93711     0.980375  0.000744507 -2.49571e-05 
         850      4.98541     0.981774  0.000747429 -2.49418e-05 
         850      5.03391     0.983092   0.00075021 -2.49262e-05 
         850      5.08268     0.984335  0.000752855 -2.49103e-05 
         850      5.13165     0.985502  0.000755366 -2.48941e-05 
         850      5.18089       0.9866  0.000757748 -2.48775e-05 
         850      5.23037      0.98763  0.000760004 -2.48607e-05 
         850      5.28004     0.988594  0.000762135 -2.48436e-05 
         850      5.32999     0.989496  0.000764149 -2.48262e-05 
         850      5.38013     0.990338  0.000766046 -2.48087e-05 
         850      5.43055     0.991124  0.000767833  -2.4791e-05 
         850      5.48116     0.991856  0.000769513 -2.47731e-05 
         850      5.53204     0.992537   0.00077109 -2.47552e-05 
         850      5.58317     0.993169  0.000772569 -2.47372e-05 
         850      5.63448     0.993755  0.000773953 -2.47193e-05 
         850      5.68607     0.994298  0.000775247 -2.47014e-05 
         850      5.73786       0.9948  0.000776454 -2.46837e-05 
         850      5.78992     0.995263  0.000777581 -2.46662e-05 
         850      5.84218      0.99569  0.000778628 -2.46489e-05 
         850      5.89471     0.996083  0.000779603 -2.46319e-05 
         850      5.94748     0.996444  0.000780507 -2.46151e-05 
         850      6.00044     0.996776  0.000781343 -2.45987e-05 
         850      6.05367     0.997079  0.000782118 -2.45825e-05 
         850       6.1071     0.997356  0.000782831 -2.45666e-05 
         850      6.16081      0.99761  0.000783489  -2.4551e-05 
         850      6.21471      0.99784  0.000784091 -2.45355e-05 
         850      6.26889     0.998051  0.000784643 -2.45201e-05 
         850      6.32326     0.998241  0.000785146 -2.45045e-05 
         850       6.3779     0.998414  0.000785604 -2.44887e-05 
         850      6.43279     0.998571  0.000786018 -2.44724e-05 
         850      6.48786     0.998712  0.000786401 -2.44553e-05 
         850      6.54321      0.99884  0.000786751 -2.44375e-05 
         850      6.59876     0.998956  0.000787066 -2.44192e-05 
         850      6.65458      0.99906   0.00078735 -2.44004e-05 
         850      6.71059     0.999153  0.000787605  -2.4381e-05 
         850      6.76689     0.999236  0.000787834 -2.43611e-05 
         850      6.82341     0.999311  0.000788039 -2.43407e-05 
         850      6.88013     0.999378  0.000788222 -2.43199e-05 
         850      6.93713     0.999437  0.000788386 -2.42988e-05 
         850      6.99432      0.99949  0.000788533 -2.42776e-05 
         850      7.05178     0.999537  0.000788666 -2.42563e-05 
         850      7.10944     0.999579  0.000788786 -2.42352e-05 
         850      7.16738     0.999616  0.000788898 -2.42146e-05 
         850      7.22551     0.999649  0.000789002 -2.41947e-05 
         850      7.28391     0.999678  0.000789102 -2.41758e-05 
         850      7.34256     0.999704  0.000789202 -2.41583e-05 
         850      7.40139     0.999727  0.000789302 -2.41426e-05 
         850       7.4605     0.999746  0.000789387 -2.41261e-05 
         850       7.5198     0.999762  0.000789417 -2.41026e-05 
         850      7.57939     0.999776  0.000789452 -2.40795e-05 
         850      7.63916     0.999788  0.000789488 -2.40571e-05 
         850      7.69921     0.999799  0.000789524  -2.4035e-05 
         850       7.7595     0.999809  0.000789559 -2.40134e-05 
         850      7.81998     0.999817  0.000789591 -2.39921e-05 
         850      7.88073     0.999824  0.000789621 -2.39711e-05 
         850      7.94168     0.999831  0.000789647 -2.39504e-05 
         850      8.00291     0.999836  0.000789669 -2.39299e-05 
         850      8.06432     0.999841  0.000789688 -2.39095e-05 
         850      8.12602     0.999845  0.000789703 -2.38893e-05 
         850      8.18796     0.999849  0.000789714 -2.38691e-05 
         850      8.25008     0.999852  0.000789723  -2.3849e-05 
         850      8.31248     0.999855  0.000789729 -2.38288e-05 
         850      8.37507     0.999857  0.000789733 -2.38086e-05 
         850      8.43794     0.999859  0.000789735 -2.37883e-05 
         850        8.501     0.999861  0.000789736  -2.3768e-05 
         850      8.56434     0.999862  0.000789735 -2.37475e-05 
         850      8.62787     0.999864  0.000789734 -2.37269e-05 
         850      8.69169     0.999865  0.000789733 -2.37061e-05 
         850      8.75574     0.999866  0.000789732 -2.36851e-05 
         850      8.81997     0.999867  0.000789732  -2.3664e-05 
         850      8.88449     0.999868  0.000789731 -2.36427e-05 
         850      8.94919     0.999868  0.000789732 -2.36212e-05 
         850      9.01418     0.999869  0.000789733 -2.35995e-05 
         850      9.07935      0.99987  0.000789735 -2.35776e-05 
         850      9.14481      0.99987  0.000789738 -2.35555e-05 
         850      9.21051      0.99987  0.000789741 -2.35333e-05 
         850      9.27639     0.999871  0.000789745 -2.35109e-05 
         850      9.34255     0.999871   0.00078975 -2.34884e-05 
         850       9.4089     0.999872  0.000789754 -2.34658e-05 
         850      9.47553     0.999872  0.000789759  -2.3443e-05 
         850      9.54235     0.999872  0.000789765 -2.34202e-05 
         850      9.60945     0.999872  0.000789769 -2.33972e-05 
         850      9.67674     0.999873  0.000789774 -2.33743e-05 
         850      9.74432     0.999873  0.000789778 -2.33513e-05 
         850      9.81212     0.999873  0.000789781 -2.33282e-05 
         850      9.88012     0.999874  0.000789784 -2.33052e-05 
         850       9.9484     0.999874  0.000789786 -2.32821e-05 
         850      10.0169     0.999874  0.000789786 -2.32591e-05 
         850      10.0856     0.999874  0.000789786 -2.32361e-05 
         850      10.1545     0.999875  0.000789785 -2.32131e-05 
         850      10.2238     0.999875  0.000789784 -2.31901e-05 
         850      10.2932     0.999875  0.000789781 -2.31672e-05 
         850      10.3628     0.999876  0.000789778 -2.31443e-05 
         850      10.4328     0.999876  0.000789774 -2.31214e-05 
         850      10.5029     0.999876  0.000789771 -2.30986e-05 
         850      10.5733     0.999877  0.000789767 -2.30757e-05 
         850      10.6438     0.999877  0.000789763 -2.30528e-05 
         850      10.7147     0.999877  0.000789759 -2.30298e-05 
         850      10.7858     0.999878  0.000789757 -2.30068e-05 
         850      10.8571     0.999878  0.000789754 -2.29837e-05 
         850      10.9287     0.999878  0.000789753 -2.29605e-05 
         850      11.0004     0.999879  0.000789753 -2.29371e-05 
         850      11.0725     0.999879  0.000789753 -2.29135e-05 
         850      11.1447     0.999879  0.000789755 -2.28898e-05 
         850      11.2172      0.99988  0.000789757 -2.28658e-05 
         850      11.2899      0.99988   0.00078976 -2.28416e-05 
         850      11.3628      0.99988  0.000789764 -2.28172e-05 
         850      11.4361     0.999881  0.000789768 -2.27925e-05 
         850      11.5095     0.999881  0.000789772 -2.27677e-05 
         850      11.5831     0.999881  0.000789775 -2.27426e-05 
         850       11.657     0.999881  0.000789778 -2.27175e-05 
         850      11.7312     0.999882   0.00078978 -2.26923e-05 
         850      11.8055     0.999882  0.000789781 -2.26672e-05 
         850      11.8801     0.999882   0.00078978 -2.26423e-05 
         850       11.955     0.999882  0.000789779 -2.26178e-05 
         850        12.03     0.999883  0.000789778 -2.25939e-05 
         850      12.1053     0.999883  0.000789777 -2.25709e-05 
         850      12.1809     0.999883  0.000789779 -2.25491e-05 
         850      12.2567     0.999884  0.000789787  -2.2529e-05 
         850      12.3326     0.999884  0.000789775 -2.24982e-05 
         850      12.4089     0.999884  0.000789767 -2.24672e-05 
         850      12.4854     0.999885  0.000789764  -2.2437e-05 
         850      12.5621     0.999885  0.000789764 -2.24076e-05 
         850      12.6391     0.999885  0.000789765 -2.23787e-05 
         850      12.7162     0.999886  0.000789766 -2.23503e-05 
         850      12.7937     0.999886  0.000789768 -2.23224e-05 
         850      12.8713     0.999887  0.000789768 -2.22949e-05 
         850      12.9492     0.999887  0.000789768 -2.22679e-05 
         850      13.0273     0.999887  0.000789768 -2.22413e-05 
         850      13.1057     0.999888  0.000789768 -2.22153e-05 
         850      13.1843     0.999888  0.000789768   -2.219e-05 
         850      13.2631     0.999888  0.000789769 -2.21656e-05 
         850      13.3422     0.999889  0.000789773 -2.21422e-05 
         850      13.4215     0.999889  0.000789781 -2.21201e-05 
         850       13.501     0.999889  0.000789794 -2.20996e-05 
         850      13.5807      0.99989  0.000789796 -2.20756e-05 
         850      13.6608      0.99989  0.000789779 -2.20448e-05 
         850       13.741      0.99989  0.000789769 -2.20149e-05 
         850      13.8215      0.99989  0.000789764 -2.19858e-05 
         850      13.9022     0.999891  0.000789762 -2.19572e-05 
         850      13.9831     0.999891  0.000789763 -2.19291e-05 
         850      14.0643     0.999892  0.000789765 -2.19013e-05 
         850      14.1457     0.999892  0.000789769 -2.18738e-05 
         850      14.2274     0.999892  0.000789772 -2.18464e-05 
         850      14.3092     0.999893  0.000789776 -2.18192e-05 
         850      14.3914     0.999893  0.000789779  -2.1792e-05 
         850      14.4738     0.999894  0.000789781 -2.17649e-05 
         850      14.5563     0.999894  0.000789783 -2.17376e-05 
         850      14.6392     0.999894  0.000789784 -2.17104e-05 
         850      14.7222     0.999895  0.000789785  -2.1683e-05 
         850      14.8055     0.999895  0.000789784 -2.16555e-05 
         850       14.889     0.999896  0.000789783 -2.16279e-05 
         850      14.9728     0.999896  0.000789782 -2.16001e-05 
         850      15.0568     0.999896   0.00078978 -2.15722e-05 
         850       15.141     0.999897  0.000789778 -2.15442e-05 
         850      15.2255     0.999897  0.000789776  -2.1516e-05 
         850      15.3102     0.999897  0.000789774 -2.14877e-05 
         850      15.3952     0.999898  0.000789772 -2.14593e-05 
         850      15.4803     0.999898   0.00078977 -2.14308e-05 
         850      15.5657     0.999898  0.000789769 -2.14021e-05 
         850      15.6514     0.999899  0.000789768 -2.13734e-05 
         850      15.7372     0.999899  0.000789767 -2.13445e-05 
         850      15.8234     0.999899  0.000789767 -2.13156e-05 
         850      15.9097       0.9999  0.000789767 -2.12866e-05 
         850      15.9963       0.9999  0.000789768 -2.12575e-05 
         850      16.0831       0.9999   0.00078977 -2.12284e-05 
         850      16.1702     0.999901  0.000789771 -2.11991e-05 
         850      16.2574     0.999901  0.000789773 -2.11699e-05 
         850       16.345     0.999902  0.000789776 -2.11405e-05 
         850      16.4328     0.999902  0.000789778 -2.11111e-05 
         850      16.5207     0.999902  0.000789781 -2.10817e-05 
         850       16.609     0.999903  0.000789784 -2.10522e-05 
         850      16.6974     0.999903  0.000789786 -2.10226e-05 
         850      16.7861     0.999904  0.000789789  -2.0993e-05 
         850       16.875     0.999904  0.000789791 -2.09633e-05 
         850      16.9642     0.999904  0.000789793 -2.09335e-05 
         850      17.0537     0.999905  0.000789795 -2.09036e-05 
         850      17.1433     0.999905  0.000789796 -2.08736e-05 
         850      17.2332     0.999906  0.000789797 -2.08436e-05 
         850      17.3232     0.999906  0.000789797 -2.08135e-05 
         850      17.4136     0.999906  0.000789797 -2.07832e-05 
         850      17.5041     0.999907  0.000789797 -2.07529e-05 
         850       17.595     0.999907  0.000789796 -2.07224e-05 
         850      17.6861     0.999908  0.000789795 -2.06919e-05 
         850      17.7773     0.999908  0.000789794 -2.06613e-05 
         850      17.8689     0.999908  0.000789793 -2.06305e-05 
         850      17.9606     0.999909  0.000789791 -2.05996e-05 
         850      18.0526     0.999909   0.00078979 -2.05687e-05 
         850      18.1448      0.99991  0.000789788 -2.05376e-05 
         850      18.2373      0.99991  0.000789787 -2.05064e-05 
         850      18.3299      0.99991  0.000789786 -2.04752e-05 
         850      18.4229     0.999911  0.000789786 -2.04439e-05 
         850      18.5161     0.999911  0.000789786 -2.04124e-05 
         850      18.6094     0.999912  0.000789787 -2.03809e-05 
         850      18.7031     0.999912  0.000789788 -2.03494e-05 
         850      18.7969     0.999913   0.00078979 -2.03177e-05 
         850       18.891     0.999913  0.000789793  -2.0286e-05 
         850      18.9853     0.999913  0.000789797 -2.02541e-05 
         850      19.0799     0.999914  0.000789801 -2.02222e-05 
         850      19.1748     0.999914  0.000789807 -2.01901e-05 
         850      19.2698     0.999915  0.000789813 -2.01578e-05 
         850      19.3651     0.999915   0.00078982 -2.01253e-05 
         850      19.4606     0.999916  0.000789828 -2.00925e-05 
         850      19.5563     0.999916  0.000789822  -2.0064e-05 
         850      19.6523     0.999916  0.000789808 -2.00363e-05 
         850      19.7485     0.999917  0.000789794 -2.00067e-05 
         850      19.8449     0.999917  0.000789782 -1.99757e-05 
         850      19.9417     0.999917  0.000789773 -1.99437e-05 
         850      20.0386     0.999918  0.000789767  -1.9911e-05 
         850      20.1357     0.999918  0.000789764 -1.98779e-05 
         850      20.2331     0.999918  0.000789766 -1.98446e-05 
         850      20.3307     0.999919  0.000789771 -1.98112e-05 
         850      20.4286     0.999919  0.000789781 -1.97777e-05 
         850      20.5267      0.99992  0.000789793 -1.97444e-05 
         850       20.625      0.99992  0.000789808 -1.97112e-05 
         850      20.7236     0.999921  0.000789822  -1.9678e-05 
         850      20.8224     0.999921  0.000789834  -1.9645e-05 
         850      20.9215     0.999922  0.000789838  -1.9612e-05 
         850      21.0207     0.999922  0.000789828  -1.9579e-05 
         850      21.1202     0.999923  0.000789798 -1.95458e-05 
         850      21.2199     0.999923  0.000789784 -1.95136e-05 
         850      21.3199     0.999923  0.000789815 -1.94827e-05 
         850      21.4202     0.999924  0.000789827 -1.94512e-05 
         850      21.5206     0.999924  0.000789827 -1.94191e-05 
         850      21.6213     0.999925  0.000789818 -1.93863e-05 
         850      21.7222     0.999925  0.000789805 -1.93529e-05 
         850      21.8234     0.999925  0.000789791 -1.93188e-05 
         850      21.9247     0.999926   0.00078978 -1.92841e-05 
         850      22.0264     0.999926  0.000789773 -1.92489e-05 
         850      22.1282     0.999927  0.000789771 -1.92135e-05 
         850      22.2303     0.999927  0.000789776 -1.91779e-05 
         850      22.3327     0.999927  0.000789785 -1.91425e-05 
         850      22.4352     0.999928  0.000789798 -1.91078e-05 
         850       22.538     0.999928  0.000789811  -1.9074e-05 
         850       22.641     0.999929  0.000789818 -1.90419e-05 
         850      22.7443     0.999929  0.000789811 -1.90119e-05 
         850      22.8477     0.999929   0.00078978 -1.89848e-05 
         850      22.9515      0.99993  0.000789786 -1.89495e-05 
         850      23.0555      0.99993  0.000789811 -1.89098e-05 
         850      23.1597     0.999931  0.000789827  -1.8871e-05 
         850      23.2642     0.999931  0.000789834 -1.88327e-05 
         850      23.3688     0.999932  0.000789837 -1.87951e-05 
         850      23.4737     0.999932  0.000789835 -1.87578e-05 
         850      23.5788     0.999933  0.000789832 -1.87209e-05 
         850      23.6843     0.999933  0.000789827 -1.86843e-05 
         850      23.7899     0.999934  0.000789822 -1.86478e-05 
         850      23.8957     0.999934  0.000789816 -1.86115e-05 
         850      24.0018     0.999935  0.000789812 -1.85752e-05 