Variables = x, y, u, v, p

Zone, I=416, F=POINT
         -50            0            0            0     -87.1709 
         -50     0.013333 -7.50263e-05 -3.04947e-08     -87.1709 
         -50     0.053333   -7.255e-05 -1.61197e-07     -87.1709 
         -50         0.12 -5.99795e-05 -4.57328e-07     -87.1709 
         -50     0.213332 -4.81352e-05 -7.92074e-07     -87.1709 
         -50     0.333332 -4.03501e-05 -1.83661e-06     -87.1708 
         -50         0.48  -3.6206e-05 -2.48356e-06     -87.1708 
         -50     0.653331 -3.59616e-05 -1.39799e-06     -87.1706 
         -50     0.853332 -4.12388e-05 -2.62126e-06     -87.1705 
         -50         1.08 -5.11438e-05 -3.30373e-06     -87.1702 
         -50      1.33333 -6.17681e-05 -3.78807e-06     -87.1699 
         -50      1.61333  -7.2153e-05 -4.01928e-06     -87.1694 
         -50         1.92 -7.82794e-05 -4.04203e-06     -87.1688 
         -50      2.25333 -7.86396e-05 -3.99553e-06     -87.1681 
         -50      2.61333 -7.99043e-05 -6.80821e-06     -87.1671 
         -50            3 -8.51379e-05 -1.33719e-05     -87.1659 
         -25            0 -1.30149e-19 -6.28187e-24     -84.8516 
         -25     0.013333 -6.31347e-05 -4.62745e-09     -84.8516 
         -25     0.053333 -6.07521e-05  6.71112e-09     -84.8516 
         -25         0.12 -5.37256e-05   1.2335e-07     -84.8516 
         -25     0.213332 -5.13515e-05  5.19055e-07     -84.8516 
         -25     0.333332 -5.33832e-05   1.3452e-06     -84.8516 
         -25         0.48 -5.57904e-05  2.53061e-06     -84.8516 
         -25     0.653331 -5.67901e-05  3.77144e-06     -84.8516 
         -25     0.853332  -5.7837e-05  5.32464e-06     -84.8515 
         -25         1.08 -6.04009e-05  6.62634e-06     -84.8514 
         -25      1.33333 -6.48452e-05  7.67587e-06     -84.8514 
         -25      1.61333 -7.07566e-05  8.25498e-06     -84.8512 
         -25         1.92 -7.80275e-05  8.10345e-06     -84.8511 
         -25      2.25333 -9.01617e-05  6.55954e-06     -84.8509 
         -25      2.61333 -9.51563e-05  7.92213e-06     -84.8507 
         -25            3 -8.45144e-05  1.54722e-05     -84.8504 
           0            0            0            0     -82.6343 
           0     0.013333  -0.00018284  0.000119048     -82.6367 
           0     0.053333 -0.000165957  7.44324e-05     -82.6412 
           0         0.12 -0.000141059  5.82078e-05     -82.6464 
           0     0.213332 -0.000117527  4.64107e-05     -82.6519 
           0     0.333332 -9.86791e-05  3.74815e-05     -82.6576 
           0         0.48 -8.68313e-05  2.93306e-05     -82.6634 
           0     0.653331 -8.17214e-05  2.17053e-05     -82.6692 
           0     0.853332 -7.90806e-05   1.4605e-05      -82.675 
           0         1.08 -7.49752e-05  8.23335e-06     -82.6806 
           0      1.33333 -7.06329e-05  2.68834e-06     -82.6861 
           0      1.61333 -6.80329e-05 -1.90676e-06     -82.6915 
           0         1.92 -6.65467e-05 -5.34761e-06     -82.6966 
           0      2.25333 -6.41187e-05 -7.28922e-06     -82.7016 
           0      2.61333 -6.08463e-05 -8.36057e-06     -82.7065 
           0            3 -5.76445e-05 -7.62667e-06     -82.7111 
          20            0 -0.000145002  0.000199984     -81.2471 
          20     0.013333 -0.000130758  0.000199459      -81.247 
          20     0.053333   -8.674e-05  0.000197407      -81.247 
          20         0.12 -1.04045e-05  0.000192246     -81.2468 
          20     0.213332  9.69366e-05  0.000180981     -81.2467 
          20     0.333332  0.000219095  0.000158861     -81.2464 
          20         0.48  0.000314913  0.000120797     -81.2461 
          20     0.653331  0.000353757  6.55235e-05     -81.2458 
          20     0.853332  0.000343585 -1.48278e-06     -81.2453 
          20         1.08  0.000325096  -7.0349e-05     -81.2447 
          20      1.33333  0.000314348 -0.000131964     -81.2441 
          20      1.61333  0.000296265 -0.000180158     -81.2433 
          20         1.92  0.000263167 -0.000211618     -81.2424 
          20      2.25333  0.000213561 -0.000225566     -81.2414 
          20      2.61333  0.000157485 -0.000224013     -81.2403 
          20            3   0.00010926 -0.000209343      -81.239 
          40            0 -1.15913e-19 -2.63839e-24     -79.6507 
          40     0.013333  -0.00018136 -1.13874e-06     -79.6507 
          40     0.053333 -0.000204492 -1.68171e-05     -79.6507 
          40         0.12  0.000373832 -7.34319e-05     -79.6507 
          40     0.213332   0.00140497 -0.000186339     -79.6507 
          40     0.333332   0.00223925  -0.00034828     -79.6507 
          40         0.48   0.00249166 -0.000546064     -79.6507 
          40     0.653331   0.00242562 -0.000766954     -79.6506 
          40     0.853332   0.00242755 -0.000992089     -79.6506 
          40         1.08   0.00211397  -0.00121408     -79.6506 
          40      1.33333   0.00145074  -0.00141061     -79.6505 
          40      1.61333  0.000788491  -0.00154165     -79.6504 
          40         1.92  0.000155141  -0.00158742     -79.6503 
          40      2.25333 -0.000309538   -0.0015496     -79.6502 
          40      2.61333 -0.000585311  -0.00144538     -79.6501 
          40            3 -0.000729116  -0.00130135     -79.6499 
          60            0           -0           -0     -78.0451 
          60     0.013333 -1.48546e-05 -8.94243e-07     -78.0451 
          60     0.053333  0.000285035 -1.25325e-05     -78.0451 
          60         0.12  0.000996307  -5.0685e-05     -78.0451 
          60     0.213332   0.00184179  -0.00011786     -78.0451 
          60     0.333332   0.00243174 -0.000201394     -78.0451 
          60         0.48   0.00267495 -0.000292897     -78.0451 
          60     0.653331   0.00257568 -0.000403299     -78.0451 
          60     0.853332    0.0020252  -0.00055322     -78.0451 
          60         1.08   0.00122514 -0.000734512     -78.0451 
          60      1.33333   0.00062289 -0.000907002     -78.0451 
          60      1.61333  0.000218179  -0.00103712     -78.0451 
          60         1.92 -0.000214392  -0.00110803     -78.0452 
          60      2.25333 -0.000512376  -0.00111791     -78.0452 
          60      2.61333  -0.00067282  -0.00107502     -78.0452 
          60            3 -0.000747585 -0.000995883     -78.0453 
          80            0            0            0     -76.4563 
          80     0.013333  3.56515e-06 -3.49185e-07     -76.4563 
          80     0.053333  0.000231411 -4.79624e-06     -76.4563 
          80         0.12   0.00062983 -1.88109e-05     -76.4563 
          80     0.213332   0.00103537 -4.20046e-05     -76.4563 
          80     0.333332   0.00128402 -6.80905e-05     -76.4563 
          80         0.48   0.00136331 -9.26403e-05     -76.4563 
          80     0.653331   0.00130759 -0.000118639     -76.4563 
          80     0.853332   0.00106111  -0.00015513     -76.4563 
          80         1.08  0.000631424 -0.000205566     -76.4563 
          80      1.33333  0.000265256 -0.000257857     -76.4563 
          80      1.61333  5.95142e-05 -0.000296595     -76.4563 
          80         1.92 -0.000144963 -0.000318863     -76.4563 
          80      2.25333 -0.000295753 -0.000324866     -76.4564 
          80      2.61333 -0.000381539 -0.000314611     -76.4564 
          80            3 -0.000418972 -0.000291945     -76.4564 
         100            0 -4.27872e-20 -1.39734e-26     -74.8708 
         100     0.013333 -6.16413e-06 -2.40193e-07     -74.8708 
         100     0.053333  0.000173856 -3.30635e-06     -74.8708 
         100         0.12  0.000473233 -1.29581e-05     -74.8708 
         100     0.213332  0.000763584 -2.87169e-05     -74.8708 
         100     0.333332  0.000923879 -4.58191e-05     -74.8708 
         100         0.48  0.000945665 -6.11609e-05     -74.8708 
         100     0.653331   0.00085612 -7.69992e-05     -74.8708 
         100     0.853332  0.000652539 -9.75636e-05     -74.8708 
         100         1.08  0.000413428 -0.000120631     -74.8708 
         100      1.33333  0.000250288 -0.000139764     -74.8708 
         100      1.61333  0.000116914 -0.000152455     -74.8708 
         100         1.92 -4.35715e-05 -0.000158778     -74.8708 
         100      2.25333 -0.000174769 -0.000158337     -74.8708 
         100      2.61333 -0.000261497 -0.000151333     -74.8708 
         100            3 -0.000309456  -0.00013941     -74.8709 
         150            0            0            0     -70.9057 
         150     0.013333  0.000132791  2.36018e-08     -70.9057 
         150     0.053333  0.000599598  7.85045e-07     -70.9057 
         150         0.12   0.00106935  6.28991e-06     -70.9057 
         150     0.213332   0.00127332  2.48496e-05     -70.9057 
         150     0.333332   0.00118139  6.37885e-05     -70.9057 
         150         0.48  0.000974837  0.000123411     -70.9057 
         150     0.653331  0.000815994  0.000197645     -70.9057 
         150     0.853332  0.000716799  0.000277949     -70.9057 
         150         1.08  0.000605598  0.000356562     -70.9057 
         150      1.33333  0.000446803  0.000427174     -70.9057 
         150      1.61333  0.000256894  0.000485429     -70.9057 
         150         1.92  6.86013e-05  0.000525272     -70.9057 
         150      2.25333 -9.66554e-05  0.000542876     -70.9058 
         150      2.61333 -0.000223467  0.000538937     -70.9058 
         150            3 -0.000305468  0.000515705     -70.9058 
         200            0            0            0     -66.9322 
         200     0.013333  2.12499e-05  3.15648e-07     -66.9322 
         200     0.053333  0.000150204  4.71178e-06     -66.9322 
         200         0.12  0.000135278  2.09839e-05     -66.9322 
         200     0.213332 -7.29366e-05  5.48727e-05     -66.9322 
         200     0.333332 -0.000335716  0.000105702     -66.9322 
         200         0.48 -0.000507608  0.000169326     -66.9322 
         200     0.653331 -0.000527463  0.000243657     -66.9322 
         200     0.853332 -0.000389677  0.000328307     -66.9322 
         200         1.08 -0.000188448  0.000417432     -66.9322 
         200      1.33333 -7.67603e-05   0.00049896     -66.9322 
         200      1.61333 -4.47165e-05  0.000564447     -66.9322 
         200         1.92 -7.24615e-06   0.00060914     -66.9322 
         200      2.25333  1.86125e-05  0.000629471     -66.9322 
         200      2.61333  2.98242e-05  0.000624742     -66.9322 
         200            3  3.05155e-05  0.000597328     -66.9322 
         250            0           -0           -0     -62.9475 
         250     0.013333  3.17441e-05  -1.2262e-07     -62.9475 
         250     0.053333  0.000291794 -1.63122e-06     -62.9475 
         250         0.12  0.000651486 -5.94878e-06     -62.9475 
         250     0.213332  0.000957945 -1.14178e-05     -62.9475 
         250     0.333332   0.00109826 -1.35304e-05     -62.9475 
         250         0.48   0.00108782 -9.02802e-06     -62.9475 
         250     0.653331   0.00100747  1.30959e-06     -62.9475 
         250     0.853332  0.000893297  1.37736e-05     -62.9475 
         250         1.08   0.00074116  2.55389e-05     -62.9475 
         250      1.33333  0.000573196   3.6713e-05     -62.9475 
         250      1.61333  0.000402028  4.80916e-05     -62.9475 
         250         1.92  0.000214611  5.84094e-05     -62.9475 
         250      2.25333  3.49229e-05  6.65851e-05     -62.9475 
         250      2.61333 -0.000121094  7.22907e-05     -62.9475 
         250            3 -0.000245838  7.49031e-05     -62.9475 
         300            0            0            0     -58.9546 
         300     0.013333 -9.49252e-05 -1.52748e-07     -58.9546 
         300     0.053333 -0.000143772 -2.30741e-06     -58.9546 
         300         0.12 -9.52553e-05 -1.04898e-05     -58.9546 
         300     0.213332  7.40635e-05 -2.81784e-05     -58.9546 
         300     0.333332  0.000285024 -5.56733e-05     -58.9546 
         300         0.48  0.000440153 -9.04913e-05     -58.9546 
         300     0.653331  0.000498853 -0.000130059     -58.9546 
         300     0.853332  0.000468172 -0.000173119     -58.9546 
         300         1.08  0.000376332 -0.000218495     -58.9546 
         300      1.33333  0.000270084 -0.000263418     -58.9546 
         300      1.61333  0.000181564 -0.000303767     -58.9546 
         300         1.92  9.26514e-05 -0.000335802     -58.9546 
         300      2.25333  9.36825e-06 -0.000356969     -58.9546 
         300      2.61333  -6.4358e-05 -0.000365565     -58.9546 
         300            3 -0.000126966 -0.000361321     -58.9546 
         350            0           -0           -0      -54.953 
         350     0.013333 -0.000190012 -3.32432e-08      -54.953 
         350     0.053333 -0.000508938 -7.15003e-07      -54.953 
         350         0.12 -0.000830081 -4.60755e-06      -54.953 
         350     0.213332 -0.000986122 -1.64458e-05      -54.953 
         350     0.333332 -0.000943369 -4.03585e-05      -54.953 
         350         0.48 -0.000805304 -7.69002e-05      -54.953 
         350     0.653331 -0.000691062 -0.000123427      -54.953 
         350     0.853332 -0.000640221 -0.000175942      -54.953 
         350         1.08 -0.000605213 -0.000229473      -54.953 
         350      1.33333 -0.000524119 -0.000279029      -54.953 
         350      1.61333 -0.000405603 -0.000322072      -54.953 
         350         1.92 -0.000284037 -0.000356733      -54.953 
         350      2.25333 -0.000164622 -0.000380304      -54.953 
         350      2.61333 -5.30694e-05 -0.000390979      -54.953 
         350            3  4.08385e-05 -0.000388075      -54.953 
         400            0            0            0     -50.9411 
         400     0.013333  3.25351e-05  1.62092e-07     -50.9411 
         400     0.053333  0.000221628  2.53699e-06     -50.9411 
         400         0.12  0.000324782  1.21501e-05     -50.9411 
         400     0.213332  0.000217996  3.46464e-05     -50.9411 
         400     0.333332 -4.80358e-05  7.26585e-05     -50.9411 
         400         0.48 -0.000324844  0.000124525     -50.9411 
         400     0.653331 -0.000500829  0.000186681     -50.9411 
         400     0.853332 -0.000544578  0.000256255     -50.9411 
         400         1.08 -0.000485569  0.000330553     -50.9411 
         400      1.33333 -0.000396688  0.000405038     -50.9411 
         400      1.61333 -0.000331736     0.000474     -50.9411 
         400         1.92 -0.000271436  0.000532416     -50.9411 
         400      2.25333 -0.000209626  0.000576087     -50.9411 
         400      2.61333 -0.000147973  0.000601533     -50.9411 
         400            3 -9.06829e-05  0.000606797     -50.9411 
         450            0            0            0     -46.9182 
         450     0.013333 -0.000206586  -2.6625e-07     -46.9182 
         450     0.053333 -0.000501025 -4.19011e-06     -46.9182 
         450         0.12 -0.000632187 -2.01538e-05     -46.9182 
         450     0.213332   -0.0004238 -5.75138e-05     -46.9182 
         450     0.333332  1.74398e-05  -0.00012013     -46.9182 
         450         0.48  0.000433664 -0.000204201     -46.9182 
         450     0.653331   0.00065214 -0.000302812     -46.9182 
         450     0.853332  0.000657108   -0.0004104     -46.9182 
         450         1.08  0.000535398 -0.000521906     -46.9182 
         450      1.33333  0.000404551 -0.000630801     -46.9182 
         450      1.61333  0.000316334 -0.000730471     -46.9182 
         450         1.92  0.000232208 -0.000815094     -46.9182 
         450      2.25333   0.00014258 -0.000878731     -46.9182 
         450      2.61333  5.16681e-05 -0.000916241     -46.9182 
         450            3 -3.35791e-05 -0.000924462     -46.9182 
         500            0            0            0     -42.8858 
         500     0.013333 -0.000163008  2.42418e-07     -42.8858 
         500     0.053333 -0.000486214  3.36179e-06     -42.8858 
         500         0.12  -0.00098881   1.3366e-05     -42.8858 
         500     0.213332  -0.00150642  3.01561e-05     -42.8858 
         500     0.333332  -0.00184954  4.86283e-05     -42.8858 
         500         0.48  -0.00197888  6.39692e-05     -42.8858 
         500     0.653331  -0.00197984  7.64562e-05     -42.8858 
         500     0.853332   -0.0018966  9.13687e-05     -42.8858 
         500         1.08  -0.00168018  0.000115058     -42.8858 
         500      1.33333  -0.00134436  0.000147966     -42.8858 
         500      1.61333  -0.00102294   0.00018262     -42.8858 
         500         1.92 -0.000744304  0.000212815     -42.8858 
         500      2.25333 -0.000471138  0.000237222     -42.8858 
         500      2.61333 -0.000201055  0.000254525     -42.8858 
         500            3   4.3122e-05  0.000263455     -42.8858 
         550            0            0            0     -38.8446 
         550     0.013333 -9.12139e-05  2.64853e-07     -38.8446 
         550     0.053333 -0.000247572  3.90322e-06     -38.8446 
         550         0.12 -0.000611506  1.70578e-05     -38.8446 
         550     0.213332  -0.00112291  4.34196e-05     -38.8446 
         550     0.333332  -0.00157206  8.02801e-05     -38.8446 
         550         0.48  -0.00180143  0.000121284     -38.8446 
         550     0.653331   -0.0018106  0.000162751     -38.8446 
         550     0.853332  -0.00166045  0.000205863     -38.8446 
         550         1.08  -0.00139873  0.000252404     -38.8446 
         550      1.33333  -0.00111888  0.000298924     -38.8446 
         550      1.61333 -0.000911187    0.0003388     -38.8446 
         550         1.92 -0.000721412  0.000369555     -38.8446 
         550      2.25333 -0.000513923   0.00039072     -38.8446 
         550      2.61333 -0.000296547  0.000400973     -38.8446 
         550            3  -9.0636e-05  0.000399029     -38.8445 
         600            0            0            0     -34.7995 
         600     0.013333   7.5682e-05 -1.49537e-08     -34.7995 
         600     0.053333  0.000421717  5.24833e-08     -34.7995 
         600         0.12  0.000807517  2.01313e-06     -34.7995 
         600     0.213332   0.00103226  1.06398e-05     -34.7995 
         600     0.333332     0.001039  3.07095e-05     -34.7995 
         600         0.48  0.000944163  6.26927e-05     -34.7995 
         600     0.653331  0.000892207  0.000102583     -34.7995 
         600     0.853332   0.00091518  0.000144443     -34.7995 
         600         1.08  0.000914416  0.000181337     -34.7995 
         600      1.33333  0.000782729  0.000207667     -34.7995 
         600      1.61333  0.000566792  0.000224042     -34.7995 
         600         1.92  0.000380254  0.000234868     -34.7995 
         600      2.25333  0.000213762  0.000240732     -34.7996 
         600      2.61333  5.10132e-05  0.000240594     -34.7996 
         600            3 -0.000101079  0.000233685     -34.7996 
         650            0           -0           -0     -30.7526 
         650     0.013333 -9.21109e-05 -5.09038e-07     -30.7526 
         650     0.053333 -1.41048e-05 -7.67877e-06     -30.7526 
         650         0.12  0.000480964 -3.48167e-05     -30.7526 
         650     0.213332   0.00140974  -9.2938e-05     -30.7526 
         650     0.333332    0.0024064 -0.000181269     -30.7526 
         650         0.48   0.00305951 -0.000288566     -30.7526 
         650     0.653331   0.00323491 -0.000404132     -30.7526 
         650     0.853332   0.00302265 -0.000524774     -30.7526 
         650         1.08    0.0025684  -0.00065028     -30.7526 
         650      1.33333   0.00206909  -0.00077444     -30.7526 
         650      1.61333   0.00168437 -0.000886631     -30.7526 
         650         1.92   0.00134568 -0.000981065     -30.7526 
         650      2.25333  0.000975851  -0.00105449     -30.7526 
         650      2.61333  0.000575186  -0.00110246     -30.7526 
         650            3   0.00018026  -0.00112045     -30.7527 
         700            0           -0           -0     -26.7034 
         700     0.013333 -7.01091e-05  7.80193e-07     -26.7034 
         700     0.053333 -0.000332965  1.16199e-05     -26.7034 
         700         0.12  -0.00122978  5.18025e-05     -26.7034 
         700     0.213332  -0.00272803  0.000135928     -26.7034 
         700     0.333332  -0.00426727  0.000261317     -26.7034 
         700         0.48  -0.00527856  0.000411718     -26.7034 
         700     0.653331  -0.00561105   0.00057317     -26.7034 
         700     0.853332  -0.00539868  0.000743591     -26.7035 
         700         1.08   -0.0047795  0.000927193     -26.7035 
         700      1.33333  -0.00394594   0.00111998     -26.7034 
         700      1.61333  -0.00318726   0.00130545     -26.7034 
         700         1.92  -0.00255143   0.00146848     -26.7034 
         700      2.25333  -0.00190694   0.00160153     -26.7034 
         700      2.61333  -0.00121814    0.0016975     -26.7034 
         700            3 -0.000534476   0.00174912     -26.7033 
         750            0           -0           -0     -22.6455 
         750     0.013333 -0.000264448 -6.41012e-07     -22.6455 
         750     0.053333 -0.000598155 -9.73882e-06     -22.6455 
         750         0.12 -0.000510485 -4.47668e-05     -22.6455 
         750     0.213332  0.000236323 -0.000122147     -22.6455 
         750     0.333332   0.00133932 -0.000245614     -22.6455 
         750         0.48   0.00228612 -0.000405692     -22.6455 
         750     0.653331   0.00278643 -0.000590648     -22.6455 
         750     0.853332   0.00281176 -0.000795705     -22.6455 
         750         1.08   0.00242858  -0.00102086     -22.6455 
         750      1.33333   0.00182531  -0.00125919     -22.6455 
         750      1.61333   0.00131583  -0.00149219     -22.6455 
         750         1.92  0.000998443  -0.00170239     -22.6456 
         750      2.25333  0.000718901  -0.00187968     -22.6456 
         750      2.61333  0.000414842  -0.00201552     -22.6456 
         750            3  0.000114863  -0.00210091     -22.6456 
         800            0           -0           -0     -18.5837 
         800     0.013333  0.000115818  6.54083e-08     -18.5837 
         800     0.053333  0.000568677  1.06821e-06     -18.5837 
         800         0.12   0.00111495  5.38824e-06     -18.5837 
         800     0.213332   0.00156203   1.6216e-05     -18.5837 
         800     0.333332   0.00182013  3.60741e-05     -18.5837 
         800         0.48   0.00190484  6.62868e-05     -18.5837 
         800     0.653331   0.00188783  0.000107832     -18.5837 
         800     0.853332   0.00186167  0.000161988     -18.5837 
         800         1.08   0.00189789  0.000228974     -18.5837 
         800      1.33333   0.00195526  0.000304373     -18.5837 
         800      1.61333   0.00188207  0.000378237     -18.5837 
         800         1.92    0.0016322  0.000442795     -18.5837 
         800      2.25333    0.0013102  0.000496692     -18.5837 
         800      2.61333  0.000969331  0.000538475     -18.5837 
         800            3  0.000611384  0.000565974     -18.5837 
         850            0           -0           -0     -14.5159 
         850     0.013333  0.000393109 -4.82014e-08     -14.5159 
         850     0.053333   0.00158385 -2.00929e-07     -14.5159 
         850         0.12   0.00302183  2.72638e-06     -14.5159 
         850     0.213332   0.00406866  1.94809e-05     -14.5159 
         850     0.333332   0.00434669  6.50532e-05     -14.5159 
         850         0.48    0.0039844  0.000148474     -14.5159 
         850     0.653331   0.00341337  0.000266698     -14.5159 
         850     0.853332   0.00295666  0.000407933     -14.5159 
         850         1.08   0.00263352  0.000557951     -14.5159 
         850      1.33333   0.00229601  0.000705418     -14.5159 
         850      1.61333   0.00189136  0.000845695     -14.5159 
         850         1.92   0.00149109  0.000978721     -14.5159 
         850      2.25333    0.0010908   0.00109949      -14.516 
         850      2.61333  0.000674359   0.00120116      -14.516 
         850            3  0.000250555   0.00127677      -14.516 
         900            0            0            0      -10.447 
         900     0.013333 -0.000229948  6.90134e-07      -10.447 
         900     0.053333 -0.000891475  1.01191e-05      -10.447 
         900         0.12   -0.0022412  4.41353e-05      -10.447 
         900     0.213332  -0.00408804  0.000112991      -10.447 
         900     0.333332  -0.00583816  0.000211801      -10.447 
         900         0.48  -0.00698366  0.000325361      -10.447 
         900     0.653331  -0.00744779  0.000441819      -10.447 
         900     0.853332   -0.0074123  0.000560926      -10.447 
         900         1.08  -0.00697989  0.000691354      -10.447 
         900      1.33333   -0.0061753  0.000839076      -10.447 
         900      1.61333  -0.00519097  0.000996543      -10.447 
         900         1.92  -0.00428746   0.00114685      -10.447 
         900      2.25333  -0.00340578   0.00127923      -10.447 
         900      2.61333  -0.00248247   0.00138768     -10.4469 
         900            3  -0.00152416    0.0014666     -10.4469 
         950            0           -0           -0     -6.36886 
         950     0.013333  -0.00027266 -7.99716e-08     -6.36886 
         950     0.053333 -0.000817021 -1.28694e-06     -6.36886 
         950         0.12  -0.00147397  -6.4039e-06     -6.36886 
         950     0.213332  -0.00204054 -1.89192e-05     -6.36887 
         950     0.333332  -0.00242221 -4.10799e-05     -6.36887 
         950         0.48  -0.00263255 -7.34852e-05     -6.36887 
         950     0.653331  -0.00273277 -0.000116803     -6.36887 
         950     0.853332  -0.00280543 -0.000172976     -6.36887 
         950         1.08  -0.00292793 -0.000243338     -6.36887 
         950      1.33333  -0.00306492 -0.000323899     -6.36887 
         950      1.61333  -0.00303189 -0.000403426     -6.36887 
         950         1.92  -0.00272809 -0.000471527     -6.36887 
         950      2.25333   -0.0023041 -0.000527514     -6.36886 
         950      2.61333  -0.00184833    -0.000571     -6.36886 
         950            3  -0.00136167 -0.000600434     -6.36885 
        1000            0           -0           -0     -2.28884 
        1000     0.013333 -0.000295993  4.68748e-07     -2.28884 
        1000     0.053333  -0.00108925  6.90493e-06     -2.28884 
        1000         0.12  -0.00251597   3.0281e-05     -2.28884 
        1000     0.213332  -0.00433221  7.76425e-05     -2.28884 
        1000     0.333332  -0.00596818  0.000144385     -2.28884 
        1000         0.48  -0.00694517  0.000216869     -2.28884 
        1000     0.653331  -0.00720585  0.000283306     -2.28884 
        1000     0.853332  -0.00698649  0.000341507     -2.28885 
        1000         1.08  -0.00649421  0.000396893     -2.28885 
        1000      1.33333  -0.00583304  0.000453585     -2.28885 
        1000      1.61333  -0.00512375  0.000508431     -2.28884 
        1000         1.92  -0.00444605  0.000555517     -2.28883 
        1000      2.25333  -0.00372064  0.000592916     -2.28881 
        1000      2.61333  -0.00291237  0.000620191     -2.28879 
        1000            3  -0.00204438  0.000635861     -2.28875 
