Variables = x, y, u, v, p

Zone, I=416, F=POINT
         -50            0            0            0     -187.465 
         -50     0.013333 -0.000516475  -6.2317e-08     -187.465 
         -50     0.053333 -0.000477257 -5.34908e-08     -187.465 
         -50         0.12 -0.000474724  2.99331e-07     -187.465 
         -50     0.213332 -0.000487468  1.01834e-06     -187.465 
         -50     0.333332 -0.000500222    1.973e-06     -187.465 
         -50         0.48 -0.000506594  3.35733e-06     -187.465 
         -50     0.653331 -0.000505895  4.32869e-06     -187.464 
         -50     0.853332 -0.000498274  5.56044e-06     -187.464 
         -50         1.08 -0.000487497  6.34887e-06     -187.463 
         -50      1.33333 -0.000474664  6.15613e-06     -187.463 
         -50      1.61333 -0.000462834   5.2898e-06     -187.462 
         -50         1.92 -0.000460612  1.96891e-06      -187.46 
         -50      2.25333 -0.000463499  -1.1683e-06     -187.459 
         -50      2.61333 -0.000461942 -2.19514e-06     -187.457 
         -50            3 -0.000455927  -1.8496e-06     -187.454 
         -25            0 -1.03898e-18 -1.83582e-23     -182.368 
         -25     0.013333 -0.000442814 -3.16045e-08     -182.368 
         -25     0.053333 -0.000410801  -2.5346e-07     -182.368 
         -25         0.12 -0.000397104 -9.98215e-07     -182.368 
         -25     0.213332  -0.00038377 -2.55609e-06     -182.368 
         -25     0.333332 -0.000368968 -4.97665e-06     -182.368 
         -25         0.48 -0.000357572 -8.12778e-06     -182.368 
         -25     0.653331  -0.00035491 -1.17966e-05     -182.368 
         -25     0.853332 -0.000360268 -1.58846e-05     -182.368 
         -25         1.08 -0.000367563 -1.99281e-05     -182.368 
         -25      1.33333 -0.000371435  -2.3311e-05     -182.368 
         -25      1.61333 -0.000371457 -2.57364e-05     -182.367 
         -25         1.92 -0.000368783 -2.67968e-05     -182.367 
         -25      2.25333 -0.000366628 -2.74345e-05     -182.367 
         -25      2.61333 -0.000365498 -2.58643e-05     -182.366 
         -25            3  -0.00036422 -2.07004e-05     -182.365 
           0            0            0            0     -177.492 
           0     0.013333  -0.00140966  0.000878727     -177.499 
           0     0.053333 -0.000862768  0.000459687     -177.509 
           0         0.12 -0.000656581  0.000309305      -177.52 
           0     0.213332 -0.000559228  0.000239377     -177.533 
           0     0.333332 -0.000503641  0.000196379     -177.545 
           0         0.48 -0.000461813  0.000163496     -177.558 
           0     0.653331 -0.000433352  0.000137946     -177.571 
           0     0.853332 -0.000414664  0.000117258     -177.584 
           0         1.08 -0.000402146  0.000100118     -177.596 
           0      1.33333 -0.000391959  8.57315e-05     -177.608 
           0      1.61333 -0.000383716  7.38279e-05      -177.62 
           0         1.92 -0.000378361  6.39038e-05     -177.631 
           0      2.25333 -0.000373091  5.62104e-05     -177.643 
           0      2.61333  -0.00036778   4.9356e-05     -177.653 
           0            3 -0.000372626    3.833e-05     -177.663 
          20            0 -0.000463299  0.000132845     -174.448 
          20     0.013333 -0.000469474  0.000133272     -174.448 
          20     0.053333 -0.000489141  0.000134488     -174.448 
          20         0.12 -0.000525442  0.000136311     -174.447 
          20     0.213332 -0.000581899  0.000138524     -174.447 
          20     0.333332 -0.000658324   0.00014102     -174.446 
          20         0.48 -0.000738267  0.000144223     -174.446 
          20     0.653331 -0.000785717  0.000148835     -174.445 
          20     0.853332 -0.000775398   0.00015489     -174.444 
          20         1.08 -0.000709028  0.000160853     -174.443 
          20      1.33333 -0.000609194  0.000163827     -174.441 
          20      1.61333 -0.000500655  0.000161625      -174.44 
          20         1.92 -0.000397234  0.000153589     -174.438 
          20      2.25333 -0.000313098  0.000140431     -174.436 
          20      2.61333 -0.000255416  0.000124141     -174.433 
          20            3 -0.000217899  0.000108951      -174.43 
          40            0 -5.22671e-19  -8.0797e-24     -170.945 
          40     0.013333 -0.000521126  2.96115e-07     -170.945 
          40     0.053333 -0.000812971  4.03626e-06     -170.945 
          40         0.12  -0.00124513  1.44804e-05     -170.945 
          40     0.213332  -0.00158374   2.7748e-05     -170.945 
          40     0.333332  -0.00170086  3.63681e-05     -170.945 
          40         0.48  -0.00164808  3.98879e-05     -170.945 
          40     0.653331    -0.001526  4.35988e-05     -170.945 
          40     0.853332  -0.00142556  4.53199e-05     -170.945 
          40         1.08  -0.00126417   4.3215e-05     -170.945 
          40      1.33333 -0.000960208  4.18139e-05     -170.945 
          40      1.61333 -0.000625989  3.97025e-05     -170.945 
          40         1.92 -0.000331215   3.5016e-05     -170.944 
          40      2.25333 -0.000119642   2.8908e-05     -170.944 
          40      2.61333 -1.09482e-06  2.08651e-05     -170.944 
          40            3  3.71619e-05  1.11406e-05     -170.943 
          60            0           -0           -0     -167.425 
          60     0.013333 -0.000635655  1.57928e-07     -167.425 
          60     0.053333  -0.00120296  1.59646e-06     -167.425 
          60         0.12  -0.00185434  2.29377e-06     -167.425 
          60     0.213332  -0.00222713 -7.58172e-06     -167.425 
          60     0.333332  -0.00225135 -3.87381e-05     -167.425 
          60         0.48   -0.0021625 -9.27067e-05     -167.425 
          60     0.653331  -0.00214953 -0.000159655     -167.424 
          60     0.853332  -0.00210401 -0.000220919     -167.424 
          60         1.08  -0.00185191 -0.000264134     -167.424 
          60      1.33333  -0.00144528 -0.000291445     -167.424 
          60      1.61333 -0.000982721 -0.000309744     -167.424 
          60         1.92 -0.000505032 -0.000315895     -167.424 
          60      2.25333 -0.000136914 -0.000308589     -167.424 
          60      2.61333  8.94257e-05 -0.000292017     -167.424 
          60            3  0.000206184 -0.000268192     -167.424 
          80            0            0            0     -163.942 
          80     0.013333 -0.000621356   1.5309e-07     -163.942 
          80     0.053333  -0.00116356  1.60305e-06     -163.942 
          80         0.12  -0.00181012  2.91288e-06     -163.942 
          80     0.213332  -0.00222449 -4.32559e-06     -163.942 
          80     0.333332   -0.0023115 -2.97819e-05     -163.942 
          80         0.48  -0.00224613 -7.54452e-05     -163.942 
          80     0.653331  -0.00218634 -0.000133338     -163.942 
          80     0.853332  -0.00204455 -0.000186882     -163.942 
          80         1.08  -0.00166257 -0.000220976     -163.942 
          80      1.33333   -0.0011846 -0.000235759     -163.942 
          80      1.61333 -0.000794162 -0.000243307     -163.942 
          80         1.92  -0.00042369 -0.000242684     -163.942 
          80      2.25333 -0.000128126 -0.000232404     -163.942 
          80      2.61333  7.16786e-05 -0.000215292     -163.942 
          80            3   0.00018846 -0.000192519     -163.942 
         100            0  -5.1483e-19 -1.28755e-25      -160.47 
         100     0.013333 -0.000524919  1.75075e-07      -160.47 
         100     0.053333 -0.000844622  2.23446e-06      -160.47 
         100         0.12  -0.00130591  7.65712e-06      -160.47 
         100     0.213332  -0.00171342  1.36519e-05      -160.47 
         100     0.333332  -0.00195345  1.48284e-05      -160.47 
         100         0.48   -0.0020577  8.43146e-06      -160.47 
         100     0.653331  -0.00207069 -2.37998e-06      -160.47 
         100     0.853332  -0.00191555 -8.42485e-06      -160.47 
         100         1.08  -0.00156594  -4.3587e-06      -160.47 
         100      1.33333  -0.00122064  3.81937e-06      -160.47 
         100      1.61333 -0.000927341  9.75979e-06      -160.47 
         100         1.92 -0.000590506  1.56703e-05      -160.47 
         100      2.25333 -0.000302404  2.16878e-05      -160.47 
         100      2.61333 -9.56657e-05  2.62806e-05      -160.47 
         100            3  4.06612e-05  2.98764e-05      -160.47 
         150            0            0            0     -151.805 
         150     0.013333  -0.00031134  6.26908e-08     -151.805 
         150     0.053333 -7.48436e-05  1.10841e-06     -151.805 
         150         0.12  0.000113961  6.04501e-06     -151.805 
         150     0.213332  0.000161066  1.91324e-05     -151.805 
         150     0.333332   8.6817e-05  4.31122e-05     -151.805 
         150         0.48 -1.14501e-05  7.72952e-05     -151.805 
         150     0.653331 -6.49139e-05  0.000118719     -151.805 
         150     0.853332 -7.55914e-05   0.00016367     -151.805 
         150         1.08 -8.77615e-05  0.000208206     -151.805 
         150      1.33333 -0.000131226  0.000248442     -151.805 
         150      1.61333 -0.000196914  0.000281506     -151.805 
         150         1.92 -0.000266447  0.000303867     -151.805 
         150      2.25333  -0.00033402  0.000313404     -151.805 
         150      2.61333 -0.000390432  0.000310417     -151.805 
         150            3 -0.000429374  0.000296789     -151.805 
         200            0            0            0     -143.147 
         200     0.013333 -0.000469911  2.50147e-07     -143.147 
         200     0.053333 -0.000675484  3.52025e-06     -143.147 
         200         0.12  -0.00106511  1.42952e-05     -143.147 
         200     0.213332  -0.00148576  3.31158e-05     -143.147 
         200     0.333332  -0.00175929  5.51171e-05     -143.147 
         200         0.48  -0.00183978  7.51205e-05     -143.147 
         200     0.653331  -0.00178616  9.25079e-05     -143.147 
         200     0.853332  -0.00163353  0.000110556     -143.147 
         200         1.08   -0.0014003  0.000130778     -143.147 
         200      1.33333  -0.00115263  0.000150051     -143.147 
         200      1.61333 -0.000916181    0.0001643     -143.147 
         200         1.92 -0.000659992  0.000172314     -143.147 
         200      2.25333 -0.000424745  0.000173834     -143.147 
         200      2.61333 -0.000230177  0.000168414     -143.147 
         200            3 -8.46302e-05  0.000157084     -143.147 
         250            0           -0           -0      -134.49 
         250     0.013333 -0.000385137  1.10616e-07      -134.49 
         250     0.053333 -0.000342455  1.62577e-06      -134.49 
         250         0.12 -0.000381709  7.12503e-06      -134.49 
         250     0.213332 -0.000491851  1.84436e-05      -134.49 
         250     0.333332 -0.000613808   3.5364e-05      -134.49 
         250         0.48 -0.000695634  5.64054e-05      -134.49 
         250     0.653331 -0.000721963  8.05092e-05      -134.49 
         250     0.853332 -0.000691992    0.0001077      -134.49 
         250         1.08 -0.000614084  0.000137821      -134.49 
         250      1.33333  -0.00052696  0.000168661      -134.49 
         250      1.61333 -0.000462656  0.000196384      -134.49 
         250         1.92 -0.000401619  0.000218163      -134.49 
         250      2.25333 -0.000349554  0.000232239      -134.49 
         250      2.61333 -0.000309376  0.000237581      -134.49 
         250            3 -0.000279124  0.000234391      -134.49 
         300            0            0            0     -125.836 
         300     0.013333 -0.000298665   6.6696e-08     -125.836 
         300     0.053333 -3.19645e-05  1.18303e-06     -125.836 
         300         0.12  0.000183414  6.48674e-06     -125.836 
         300     0.213332  0.000230658  2.06627e-05     -125.836 
         300     0.333332  0.000124638  4.68389e-05     -125.836 
         300         0.48 -1.92521e-05  8.43251e-05     -125.836 
         300     0.653331 -0.000106781  0.000129866     -125.836 
         300     0.853332 -0.000126275  0.000179563     -125.836 
         300         1.08 -0.000131371  0.000229124     -125.836 
         300      1.33333 -0.000168722  0.000274639     -125.836 
         300      1.61333 -0.000227545  0.000313926     -125.836 
         300         1.92 -0.000284965  0.000344519     -125.836 
         300      2.25333  -0.00034016  0.000363646     -125.836 
         300      2.61333 -0.000389515  0.000369983     -125.836 
         300            3 -0.000427606  0.000363415     -125.836 
         350            0           -0           -0     -117.183 
         350     0.013333 -0.000267839 -1.57191e-07     -117.183 
         350     0.053333  0.000139938 -2.10129e-06     -117.183 
         350         0.12  0.000665562 -7.77352e-06     -117.183 
         350     0.213332   0.00112562 -1.53955e-05     -117.183 
         350     0.333332   0.00136672 -1.94959e-05     -117.183 
         350         0.48   0.00139358 -1.56309e-05     -117.183 
         350     0.653331    0.0013116 -3.93774e-06     -117.183 
         350     0.853332   0.00118701  1.16286e-05     -117.183 
         350         1.08   0.00100738  2.64274e-05     -117.183 
         350      1.33333  0.000766302  3.82686e-05     -117.183 
         350      1.61333   0.00050177  4.82678e-05     -117.183 
         350         1.92  0.000223684  5.70588e-05     -117.183 
         350      2.25333 -5.46534e-05  6.38229e-05     -117.183 
         350      2.61333 -0.000315974  6.82963e-05     -117.183 
         350            3 -0.000539012  7.02601e-05     -117.183 
         400            0            0            0     -108.533 
         400     0.013333  -0.00048436 -3.10377e-07     -108.533 
         400     0.053333 -0.000581636 -4.72394e-06     -108.533 
         400         0.12 -0.000512511 -2.16599e-05     -108.533 
         400     0.213332 -0.000186764 -5.85206e-05     -108.533 
         400     0.333332  0.000236904  -0.00011583     -108.533 
         400         0.48  0.000543957 -0.000188108     -108.533 
         400     0.653331  0.000640567 -0.000270131     -108.533 
         400     0.853332  0.000541132  -0.00035979     -108.533 
         400         1.08  0.000327202 -0.000453921     -108.533 
         400      1.33333  0.000135597 -0.000544726     -108.533 
         400      1.61333  2.20098e-05 -0.000624257     -108.533 
         400         1.92 -8.83959e-05 -0.000688003     -108.533 
         400      2.25333 -0.000202453  -0.00073184     -108.533 
         400      2.61333 -0.000312291 -0.000752195     -108.533 
         400            3 -0.000412238 -0.000747382     -108.533 
         450            0            0            0     -99.8854 
         450     0.013333 -0.000477902 -8.77121e-08     -99.8854 
         450     0.053333 -0.000614873 -1.47765e-06     -99.8854 
         450         0.12 -0.000721005 -7.63104e-06     -99.8854 
         450     0.213332 -0.000686829 -2.29181e-05     -99.8854 
         450     0.333332 -0.000552709 -4.91217e-05     -99.8854 
         450         0.48 -0.000442108 -8.39573e-05     -99.8854 
         450     0.653331 -0.000432076 -0.000123596     -99.8854 
         450     0.853332 -0.000506709 -0.000164717     -99.8854 
         450         1.08 -0.000579683 -0.000203162     -99.8854 
         450      1.33333 -0.000566324 -0.000234118     -99.8854 
         450      1.61333 -0.000493372 -0.000256395     -99.8854 
         450         1.92 -0.000435809  -0.00027152     -99.8854 
         450      2.25333 -0.000390275 -0.000278857     -99.8854 
         450      2.61333 -0.000348064 -0.000277575     -99.8854 
         450            3 -0.000311327 -0.000267428     -99.8854 
         500            0            0            0     -91.2399 
         500     0.013333 -0.000506442  1.87763e-07     -91.2399 
         500     0.053333  -0.00080237  2.62515e-06     -91.2399 
         500         0.12   -0.0013061  1.05975e-05     -91.2399 
         500     0.213332  -0.00185526  2.44676e-05     -91.2399 
         500     0.333332  -0.00226624  4.05257e-05     -91.2399 
         500         0.48  -0.00247221  5.42828e-05     -91.2399 
         500     0.653331  -0.00252983  6.41363e-05     -91.2399 
         500     0.853332  -0.00249732  7.23266e-05     -91.2399 
         500         1.08  -0.00235507  8.35567e-05     -91.2399 
         500      1.33333  -0.00208267  0.000100575     -91.2399 
         500      1.61333  -0.00175361  0.000120421     -91.2399 
         500         1.92   -0.0014213  0.000138564     -91.2399 
         500      2.25333  -0.00107802  0.000153534     -91.2399 
         500      2.61333 -0.000729669   0.00016436     -91.2399 
         500            3 -0.000401589  0.000170233     -91.2398 
         550            0            0            0     -82.5947 
         550     0.013333 -0.000434018 -1.98287e-07     -82.5947 
         550     0.053333  -0.00042806 -3.02948e-06     -82.5947 
         550         0.12 -0.000292785 -1.40076e-05     -82.5947 
         550     0.213332  2.92639e-05 -3.83064e-05     -82.5947 
         550     0.333332   0.00042132  -7.6716e-05     -82.5947 
         550         0.48  0.000713593 -0.000125344     -82.5947 
         550     0.653331  0.000825889 -0.000179452     -82.5947 
         550     0.853332   0.00078124  -0.00023631     -82.5947 
         550         1.08  0.000648853 -0.000294033     -82.5947 
         550      1.33333  0.000500692  -0.00034993     -82.5947 
         550      1.61333  0.000361415 -0.000401537     -82.5947 
         550         1.92  0.000211176 -0.000446549     -82.5947 
         550      2.25333  4.80103e-05 -0.000482047     -82.5947 
         550      2.61333 -0.000120313 -0.000505107     -82.5947 
         550            3 -0.000282507 -0.000513579     -82.5947 
         600            0            0            0     -73.9519 
         600     0.013333 -0.000480755  2.58066e-07     -73.9519 
         600     0.053333 -0.000727507  3.68319e-06     -73.9519 
         600         0.12  -0.00120821  1.53354e-05     -73.9519 
         600     0.213332  -0.00177035  3.67823e-05     -73.9519 
         600     0.333332  -0.00218977  6.37018e-05     -73.9519 
         600         0.48  -0.00236449  9.01329e-05     -73.9519 
         600     0.653331  -0.00235343  0.000114274     -73.9519 
         600     0.853332  -0.00222797  0.000139604     -73.9519 
         600         1.08  -0.00198604  0.000171149     -73.9519 
         600      1.33333   -0.0016552  0.000209057     -73.9519 
         600      1.61333  -0.00134944  0.000246888     -73.9519 
         600         1.92  -0.00109429  0.000279234     -73.9519 
         600      2.25333 -0.000842075   0.00030446     -73.9519 
         600      2.61333  -0.00058363  0.000321582     -73.9519 
         600            3 -0.000340766  0.000329417     -73.9518 
         650            0           -0           -0     -65.3075 
         650     0.013333  -0.00015179 -1.36553e-07     -65.3075 
         650     0.053333  0.000556859 -1.70073e-06     -65.3075 
         650         0.12   0.00144184 -5.32943e-06     -65.3075 
         650     0.213332   0.00216955  -6.6704e-06     -65.3075 
         650     0.333332   0.00249649  2.73507e-06     -65.3075 
         650         0.48   0.00245018  2.90882e-05     -65.3075 
         650     0.653331   0.00224047  7.18653e-05     -65.3075 
         650     0.853332    0.0020312  0.000125085     -65.3075 
         650         1.08   0.00182407  0.000180645     -65.3075 
         650      1.33333   0.00154109  0.000231827     -65.3075 
         650      1.61333   0.00118397  0.000276679     -65.3075 
         650         1.92  0.000824673  0.000316948     -65.3075 
         650      2.25333  0.000462888  0.000351445     -65.3076 
         650      2.61333  9.48378e-05   0.00037799     -65.3076 
         650            3 -0.000262526  0.000394442     -65.3076 
         700            0           -0           -0     -56.6676 
         700     0.013333 -0.000646097  3.35818e-07     -56.6676 
         700     0.053333  -0.00135588  4.71891e-06     -56.6676 
         700         0.12  -0.00248301  1.91488e-05     -56.6676 
         700     0.213332  -0.00368697  4.41889e-05     -56.6676 
         700     0.333332   -0.0045664  7.21169e-05     -56.6676 
         700         0.48  -0.00495498   9.2951e-05     -56.6676 
         700     0.653331  -0.00497635  0.000102436     -56.6676 
         700     0.853332  -0.00481294  0.000104136     -56.6676 
         700         1.08  -0.00451092  0.000106053     -56.6676 
         700      1.33333  -0.00403915  0.000114086     -56.6676 
         700      1.61333  -0.00345416  0.000127209     -56.6676 
         700         1.92  -0.00284947  0.000140151     -56.6675 
         700      2.25333  -0.00221896  0.000150563     -56.6675 
         700      2.61333  -0.00155964  0.000157853     -56.6675 
         700            3 -0.000900293  0.000161604     -56.6674 
         750            0           -0           -0     -48.0251 
         750     0.013333 -0.000499803 -2.08582e-07     -48.0251 
         750     0.053333 -0.000668039 -3.15544e-06     -48.0251 
         750         0.12 -0.000753525 -1.44882e-05     -48.0251 
         750     0.213332 -0.000615884 -3.98234e-05     -48.0251 
         750     0.333332 -0.000293754 -8.15755e-05     -48.0251 
         750         0.48  7.31886e-05 -0.000138534     -48.0251 
         750     0.653331  0.000366885 -0.000208122     -48.0251 
         750     0.853332  0.000528064 -0.000288908     -48.0251 
         750         1.08  0.000521041 -0.000381256     -48.0251 
         750      1.33333  0.000356577 -0.000484126     -48.0251 
         750      1.61333  0.000149262 -0.000591004     -48.0251 
         750         1.92  1.06756e-05 -0.000692432     -48.0251 
         750      2.25333 -9.34985e-05 -0.000781778     -48.0251 
         750      2.61333  -0.00019629 -0.000854361     -48.0251 
         750            3 -0.000297608 -0.000905922     -48.0251 
         800            0           -0           -0     -39.3846 
         800     0.013333 -0.000394009  -3.6891e-07     -39.3846 
         800     0.053333 -0.000218695 -5.59783e-06     -39.3846 
         800         0.12  0.000298106 -2.56807e-05     -39.3846 
         800     0.213332    0.0011992 -6.97613e-05     -39.3846 
         800     0.333332   0.00220948 -0.000138884     -39.3846 
         800         0.48   0.00296401  -0.00022519     -39.3846 
         800     0.653331   0.00329445 -0.000318792     -39.3846 
         800     0.853332   0.00325847 -0.000414284     -39.3846 
         800         1.08   0.00299132 -0.000510321     -39.3846 
         800      1.33333    0.0026263 -0.000604792     -39.3846 
         800      1.61333    0.0022536 -0.000693724     -39.3846 
         800         1.92   0.00186091 -0.000773987     -39.3846 
         800      2.25333   0.00141884 -0.000842247     -39.3846 
         800      2.61333  0.000934293 -0.000894466     -39.3846 
         800            3  0.000430971 -0.000926403     -39.3846 
         850            0           -0           -0     -30.7458 
         850     0.013333  0.000155113  2.12036e-07     -30.7458 
         850     0.053333   0.00155702  3.80791e-06     -30.7458 
         850         0.12   0.00300838  2.14591e-05     -30.7458 
         850     0.213332   0.00377522  7.12567e-05     -30.7458 
         850     0.333332   0.00362973  0.000169716     -30.7458 
         850         0.48   0.00294981  0.000320794     -30.7458 
         850     0.653331   0.00229733  0.000515223     -30.7458 
         850     0.853332   0.00198283  0.000738697     -30.7458 
         850         1.08   0.00195495  0.000976715     -30.7458 
         850      1.33333   0.00193071   0.00121367     -30.7458 
         850      1.61333     0.001689   0.00143562     -30.7458 
         850         1.92   0.00130209   0.00163652     -30.7458 
         850      2.25333  0.000894245   0.00181103     -30.7458 
         850      2.61333  0.000490658   0.00195104     -30.7458 
         850            3   7.8029e-05   0.00204687     -30.7459 
         900            0            0            0     -22.1114 
         900     0.013333  -0.00098514  5.29526e-07     -22.1114 
         900     0.053333  -0.00264042  7.26316e-06     -22.1114 
         900         0.12  -0.00505431  2.81456e-05     -22.1114 
         900     0.213332  -0.00742978  5.98245e-05     -22.1114 
         900     0.333332   -0.0089549  8.41514e-05     -22.1114 
         900         0.48  -0.00938778  8.13251e-05     -22.1114 
         900     0.653331   -0.0091038   4.5367e-05     -22.1114 
         900     0.853332    -0.008575 -1.33127e-05     -22.1114 
         900         1.08  -0.00793941   -7.609e-05     -22.1114 
         900      1.33333   -0.0070821 -0.000127456     -22.1114 
         900      1.61333  -0.00601633 -0.000164454     -22.1114 
         900         1.92  -0.00495039 -0.000196016     -22.1114 
         900      2.25333  -0.00389771 -0.000225853     -22.1114 
         900      2.61333  -0.00281799 -0.000253136     -22.1113 
         900            3  -0.00170813 -0.000275389     -22.1112 
         950            0           -0           -0     -13.4704 
         950     0.013333 -0.000658212 -1.12909e-06     -13.4704 
         950     0.053333 -0.000920954 -1.72606e-05     -13.4704 
         950         0.12 -0.000290494 -8.01222e-05     -13.4704 
         950     0.213332   0.00165452 -0.000221104     -13.4704 
         950     0.333332   0.00427987 -0.000448849     -13.4704 
         950         0.48   0.00647836 -0.000744467     -13.4704 
         950     0.653331   0.00758859  -0.00108026     -13.4704 
         950     0.853332    0.0076124  -0.00144015     -13.4704 
         950         1.08   0.00684276  -0.00182037     -13.4704 
         950      1.33333     0.005683  -0.00221302     -13.4704 
         950      1.61333   0.00460459  -0.00259689     -13.4704 
         950         1.92   0.00380048  -0.00294884     -13.4704 
         950      2.25333   0.00303135  -0.00325604     -13.4705 
         950      2.61333   0.00218491  -0.00350524     -13.4705 
         950            3   0.00129204  -0.00368132     -13.4705 
        1000            0           -0           -0     -4.83274 
        1000     0.013333   0.00103119 -2.14483e-07     -4.83274 
        1000     0.053333   0.00486684 -1.96579e-06     -4.83274 
        1000         0.12   0.00962111  6.70043e-07     -4.83274 
        1000     0.213332    0.0134235  3.36774e-05     -4.83274 
        1000     0.333332    0.0150587  0.000135667     -4.83274 
        1000         0.48    0.0147393  0.000332009     -4.83273 
        1000     0.653331     0.013627  0.000618769     -4.83273 
        1000     0.853332    0.0127085  0.000969694     -4.83272 
        1000         1.08    0.0121463   0.00134925     -4.83272 
        1000      1.33333     0.011429   0.00172003     -4.83272 
        1000      1.61333    0.0101242   0.00205539     -4.83273 
        1000         1.92   0.00845442   0.00235283     -4.83276 
        1000      2.25333   0.00673785   0.00261463      -4.8328 
        1000      2.61333    0.0050085   0.00283232     -4.83287 
        1000            3    0.0031973   0.00299116     -4.83298 
