Variables = x, y, u, v, p

Zone, I=416, F=POINT
         -50            0            0            0     -110.259 
         -50     0.013333 -1.88187e-06 -1.37906e-08     -110.259 
         -50     0.053333 -1.98819e-06  2.59909e-08     -110.259 
         -50         0.12   2.9733e-07  2.39723e-07     -110.259 
         -50     0.213332   1.9919e-06  8.43854e-07     -110.259 
         -50     0.333332 -3.58179e-07  1.63693e-06     -110.259 
         -50         0.48 -3.40976e-06  2.37283e-06     -110.258 
         -50     0.653331 -5.60619e-06  3.59027e-06     -110.258 
         -50     0.853332 -7.91672e-06  4.75938e-06     -110.258 
         -50         1.08 -1.12575e-05  5.27097e-06     -110.258 
         -50      1.33333 -1.31105e-05   5.5543e-06     -110.257 
         -50      1.61333  -1.1743e-05  5.56812e-06     -110.257 
         -50         1.92 -7.94064e-06  4.79021e-06     -110.256 
         -50      2.25333 -5.35929e-06  4.03005e-06     -110.255 
         -50      2.61333 -8.01147e-06  7.36876e-07     -110.254 
         -50            3 -1.43853e-05  -6.4664e-06     -110.252 
         -25            0 -3.33294e-20 -1.00094e-23     -107.246 
         -25     0.013333  2.68913e-06 -8.65175e-09     -107.246 
         -25     0.053333  1.40632e-05 -4.79826e-08     -107.246 
         -25         0.12  3.11979e-05 -6.58355e-08     -107.246 
         -25     0.213332  4.52114e-05  2.04738e-07     -107.246 
         -25     0.333332  5.05032e-05  1.06431e-06     -107.246 
         -25         0.48   5.2159e-05  2.49334e-06     -107.246 
         -25     0.653331  5.20847e-05  4.12124e-06     -107.246 
         -25     0.853332  4.71696e-05  5.71107e-06     -107.246 
         -25         1.08  3.72052e-05  6.97962e-06     -107.246 
         -25      1.33333  2.66139e-05  8.00249e-06     -107.246 
         -25      1.61333  1.69168e-05  8.56808e-06     -107.246 
         -25         1.92  8.70056e-06   9.1257e-06     -107.246 
         -25      2.25333  5.62534e-07  8.61958e-06     -107.245 
         -25      2.61333 -6.82393e-06  7.97232e-06     -107.245 
         -25            3 -1.10769e-05  8.92951e-06     -107.245 
           0            0            0            0     -104.364 
           0     0.013333  0.000148085 -9.99915e-06     -104.368 
           0     0.053333  2.43889e-05 -1.36511e-05     -104.374 
           0         0.12  4.30472e-06  2.96623e-06     -104.381 
           0     0.213332 -8.23141e-06  2.01525e-06     -104.388 
           0     0.333332 -2.59272e-05  4.05694e-06     -104.395 
           0         0.48 -3.80736e-05  6.15334e-06     -104.403 
           0     0.653331 -4.20631e-05  8.77035e-06     -104.411 
           0     0.853332  -3.8033e-05  1.17737e-05     -104.418 
           0         1.08 -2.92048e-05  1.48252e-05     -104.426 
           0      1.33333  -1.9705e-05  1.75524e-05     -104.433 
           0      1.61333 -9.99565e-06  1.93821e-05      -104.44 
           0         1.92 -1.77462e-06  2.02314e-05     -104.446 
           0      2.25333  4.85491e-06  2.06018e-05     -104.453 
           0      2.61333  1.69672e-05  2.12937e-05     -104.459 
           0            3  2.82568e-05  2.07242e-05     -104.465 
          20            0  0.000469263 -0.000458786     -102.564 
          20     0.013333   0.00047626 -0.000459605     -102.564 
          20     0.053333  0.000499708 -0.000461567     -102.564 
          20         0.12  0.000547114 -0.000463166     -102.564 
          20     0.213332  0.000629907 -0.000461972     -102.564 
          20     0.333332  0.000758306 -0.000455078     -102.564 
          20         0.48  0.000911741 -0.000440872     -102.563 
          20     0.653331   0.00101231 -0.000420691     -102.563 
          20     0.853332  0.000991079  -0.00039747     -102.562 
          20         1.08  0.000832223 -0.000372589     -102.561 
          20      1.33333  0.000580818 -0.000344159     -102.561 
          20      1.61333  0.000303749 -0.000310825      -102.56 
          20         1.92  4.40976e-05 -0.000273051     -102.558 
          20      2.25333 -0.000154146 -0.000232892     -102.557 
          20      2.61333 -0.000271009 -0.000192822     -102.556 
          20            3  -0.00032567 -0.000157068     -102.554 
          40            0 -3.10375e-21 -4.29837e-24     -100.495 
          40     0.013333  3.31415e-05  1.37037e-07     -100.495 
          40     0.053333  8.59571e-05  2.21717e-06     -100.495 
          40         0.12  8.70951e-05  1.01826e-05     -100.495 
          40     0.213332  6.82255e-05  2.59844e-05     -100.495 
          40     0.333332  0.000130066  4.67179e-05     -100.495 
          40         0.48  0.000297026  6.83082e-05     -100.495 
          40     0.653331    0.0004627  8.68541e-05     -100.495 
          40     0.853332  0.000515257  9.83868e-05     -100.495 
          40         1.08   0.00049542  0.000103662     -100.495 
          40      1.33333  0.000412932  0.000100771     -100.495 
          40      1.61333  0.000280464  8.71612e-05     -100.495 
          40         1.92  0.000149737  6.52596e-05     -100.494 
          40      2.25333  3.76602e-05  3.83689e-05     -100.494 
          40      2.61333  -4.2771e-05  1.13435e-05     -100.494 
          40            3 -8.39963e-05 -1.31668e-05     -100.494 
          60            0           -0           -0     -98.4158 
          60     0.013333 -0.000240951  5.45109e-07     -98.4158 
          60     0.053333  -0.00095796  7.29352e-06     -98.4158 
          60         0.12  -0.00196968  2.69701e-05     -98.4158 
          60     0.213332  -0.00283763  5.38632e-05     -98.4158 
          60     0.333332  -0.00325854  7.17739e-05     -98.4158 
          60         0.48  -0.00333311  7.13935e-05     -98.4158 
          60     0.653331  -0.00324768   6.1569e-05     -98.4158 
          60     0.853332  -0.00295148  6.26324e-05     -98.4158 
          60         1.08   -0.0024126  8.06618e-05     -98.4157 
          60      1.33333  -0.00177607  0.000103051     -98.4157 
          60      1.61333  -0.00109176  0.000116572     -98.4157 
          60         1.92  -0.00034614  0.000120253     -98.4156 
          60      2.25333  0.000244438   0.00011534     -98.4155 
          60      2.61333  0.000627745  0.000101633     -98.4154 
          60            3  0.000844065  8.32801e-05     -98.4153 
          80            0            0            0     -96.3587 
          80     0.013333 -0.000128391  5.73656e-07     -96.3587 
          80     0.053333 -0.000571822   7.9267e-06     -96.3587 
          80         0.12  -0.00131991  3.13384e-05     -96.3587 
          80     0.213332  -0.00210661  7.06014e-05     -96.3587 
          80     0.333332  -0.00264555  0.000115385     -96.3587 
          80         0.48  -0.00288208  0.000158335     -96.3587 
          80     0.653331  -0.00282434  0.000205555     -96.3587 
          80     0.853332  -0.00234743  0.000272709     -96.3587 
          80         1.08  -0.00155187   0.00036052     -96.3587 
          80      1.33333 -0.000896994  0.000446847     -96.3587 
          80      1.61333 -0.000468023  0.000512161     -96.3586 
          80         1.92  -2.6146e-05  0.000552557     -96.3586 
          80      2.25333  0.000314537  0.000566345     -96.3585 
          80      2.61333  0.000531062  0.000554433     -96.3585 
          80            3  0.000651358  0.000524423     -96.3584 
         100            0 -2.33404e-20 -7.52107e-26     -94.3082 
         100     0.013333 -2.59058e-05   2.6321e-07     -94.3082 
         100     0.053333 -0.000137246  3.64911e-06     -94.3082 
         100         0.12  -0.00035437  1.45519e-05     -94.3082 
         100     0.213332 -0.000592983  3.34249e-05     -94.3082 
         100     0.333332 -0.000752224  5.66686e-05     -94.3082 
         100         0.48 -0.000807894  8.20862e-05     -94.3082 
         100     0.653331 -0.000752165  0.000112408     -94.3082 
         100     0.853332 -0.000545373  0.000152413     -94.3082 
         100         1.08 -0.000285778  0.000198165     -94.3082 
         100      1.33333 -0.000167256  0.000237244     -94.3082 
         100      1.61333 -0.000105708  0.000264823     -94.3082 
         100         1.92  9.66139e-06    0.0002818     -94.3082 
         100      2.25333  0.000104516  0.000286722     -94.3081 
         100      2.61333  0.000162242  0.000279706     -94.3081 
         100            3  0.000195336  0.000263696     -94.3081 
         150            0            0            0      -89.193 
         150     0.013333   0.00011055 -1.31608e-07      -89.193 
         150     0.053333   0.00041934 -1.63276e-06      -89.193 
         150         0.12  0.000817736 -5.23604e-06      -89.193 
         150     0.213332   0.00113544 -7.91515e-06      -89.193 
         150     0.333332   0.00128119 -4.76189e-06      -89.193 
         150         0.48   0.00130622  6.26606e-06      -89.193 
         150     0.653331   0.00128307  2.24979e-05      -89.193 
         150     0.853332   0.00119137   3.7502e-05      -89.193 
         150         1.08  0.000985432  4.62084e-05      -89.193 
         150      1.33333   0.00073136  4.97224e-05      -89.193 
         150      1.61333  0.000485661  5.19136e-05      -89.193 
         150         1.92  0.000226594  5.21003e-05      -89.193 
         150      2.25333 -2.15053e-06  4.97443e-05     -89.1931 
         150      2.61333 -0.000181479  4.58229e-05     -89.1931 
         150            3 -0.000310148  4.03362e-05     -89.1931 
         200            0            0            0     -84.0854 
         200     0.013333 -3.92387e-05 -9.88319e-09     -84.0854 
         200     0.053333 -0.000135455  -1.5592e-07     -84.0854 
         200         0.12 -0.000244865 -7.80052e-07     -84.0854 
         200     0.213332 -0.000321899 -2.50013e-06     -84.0854 
         200     0.333332 -0.000340098 -6.38713e-06     -84.0854 
         200         0.48 -0.000304189 -1.39327e-05     -84.0854 
         200     0.653331 -0.000255648 -2.65432e-05     -84.0854 
         200     0.853332 -0.000236497 -4.45742e-05     -84.0854 
         200         1.08 -0.000235328 -6.59274e-05     -84.0854 
         200      1.33333 -0.000209015 -8.69945e-05     -84.0854 
         200      1.61333 -0.000159167 -0.000105819     -84.0854 
         200         1.92 -0.000103283 -0.000121124     -84.0854 
         200      2.25333 -4.94051e-05 -0.000131735     -84.0854 
         200      2.61333 -3.89954e-06  -0.00013718     -84.0854 
         200            3  2.99866e-05 -0.000137495     -84.0854 
         250            0           -0           -0     -78.9822 
         250     0.013333  6.52535e-05  4.19547e-07     -78.9822 
         250     0.053333  0.000130423  6.24082e-06     -78.9822 
         250         0.12 -3.40358e-05  2.76868e-05     -78.9822 
         250     0.213332 -0.000455126  7.21492e-05     -78.9822 
         250     0.333332 -0.000927366  0.000138372     -78.9822 
         250         0.48  -0.00124515  0.000220183     -78.9822 
         250     0.653331  -0.00133203  0.000314122     -78.9822 
         250     0.853332  -0.00118272  0.000420145     -78.9822 
         250         1.08 -0.000886839  0.000533616     -78.9822 
         250      1.33333 -0.000627586  0.000642223     -78.9822 
         250      1.61333 -0.000447361  0.000734686     -78.9822 
         250         1.92 -0.000253194  0.000803974     -78.9822 
         250      2.25333  -7.6339e-05  0.000844623     -78.9821 
         250      2.61333  7.05134e-05  0.000853821     -78.9821 
         250            3  0.000188521  0.000832663     -78.9821 
         300            0            0            0     -73.8825 
         300     0.013333 -8.98679e-05 -1.52679e-08     -73.8825 
         300     0.053333 -0.000306157 -4.09371e-07     -73.8825 
         300         0.12 -0.000524655 -2.96498e-06     -73.8825 
         300     0.213332  -0.00063199 -1.10815e-05     -73.8825 
         300     0.333332 -0.000618051 -2.74649e-05     -73.8825 
         300         0.48 -0.000559761 -5.20173e-05     -73.8825 
         300     0.653331 -0.000531201 -8.24564e-05     -73.8825 
         300     0.853332 -0.000534463 -0.000115226     -73.8825 
         300         1.08 -0.000505043 -0.000145636     -73.8825 
         300      1.33333 -0.000412265 -0.000170656     -73.8825 
         300      1.61333 -0.000304465 -0.000191043     -73.8825 
         300         1.92 -0.000199507 -0.000206553     -73.8825 
         300      2.25333  -9.7163e-05 -0.000215359     -73.8825 
         300      2.61333 -2.68214e-06 -0.000216888     -73.8825 
         300            3  7.60158e-05 -0.000211184     -73.8825 
         350            0           -0           -0     -68.7871 
         350     0.013333 -6.66115e-05   9.4939e-08     -68.7871 
         350     0.053333 -0.000260923  1.36357e-06     -68.7871 
         350         0.12 -0.000551545   5.6923e-06     -68.7871 
         350     0.213332 -0.000845497  1.34623e-05     -68.7871 
         350     0.333332  -0.00103052  2.21679e-05     -68.7871 
         350         0.48  -0.00106092  2.79766e-05     -68.7871 
         350     0.653331 -0.000985308  2.84582e-05     -68.7871 
         350     0.853332  -0.00088108  2.32734e-05     -68.7871 
         350         1.08 -0.000786875  1.34466e-05     -68.7871 
         350      1.33333 -0.000682581  1.31813e-06     -68.7871 
         350      1.61333 -0.000544612  -1.0981e-05     -68.7871 
         350         1.92 -0.000384867 -2.28507e-05     -68.7871 
         350      2.25333  -0.00022089 -3.38545e-05      -68.787 
         350      2.61333 -6.45977e-05 -4.34398e-05      -68.787 
         350            3  7.21345e-05 -5.10154e-05      -68.787 
         400            0            0            0     -63.6946 
         400     0.013333  0.000422196  2.12517e-07     -63.6946 
         400     0.053333   0.00143325  3.89651e-06     -63.6946 
         400         0.12   0.00239879  2.21197e-05     -63.6946 
         400     0.213332   0.00275463  7.25952e-05     -63.6946 
         400     0.333332    0.0024549  0.000168597     -63.6946 
         400         0.48   0.00191706  0.000309295     -63.6946 
         400     0.653331   0.00155123  0.000483032     -63.6946 
         400     0.853332   0.00145234  0.000674884     -63.6946 
         400         1.08   0.00142031  0.000868014     -63.6946 
         400      1.33333    0.0012357   0.00104683     -63.6946 
         400      1.61333  0.000928083   0.00120377     -63.6946 
         400         1.92  0.000617262   0.00133282     -63.6946 
         400      2.25333  0.000310395   0.00142418     -63.6946 
         400      2.61333  1.76207e-05   0.00147036     -63.6947 
         400            3 -0.000233919   0.00146771     -63.6947 
         450            0            0            0      -58.607 
         450     0.013333   0.00017367 -3.71292e-07      -58.607 
         450     0.053333  0.000709384 -5.05969e-06      -58.607 
         450         0.12   0.00151156 -1.94953e-05      -58.607 
         450     0.213332    0.0022784 -4.19366e-05      -58.607 
         450     0.333332   0.00272396 -6.32746e-05      -58.607 
         450         0.48   0.00284018 -7.65376e-05      -58.607 
         450     0.653331   0.00279234 -8.39315e-05      -58.607 
         450     0.853332   0.00263927 -9.54057e-05      -58.607 
         450         1.08    0.0022847 -0.000121738      -58.607 
         450      1.33333   0.00175386 -0.000163454      -58.607 
         450      1.61333   0.00126151 -0.000208391      -58.607 
         450         1.92  0.000836697  -0.00024739      -58.607 
         450      2.25333  0.000426921 -0.000279021      -58.607 
         450      2.61333  3.32322e-05  -0.00030154     -58.6071 
         450            3 -0.000309399 -0.000313361     -58.6071 
         500            0            0            0     -53.5235 
         500     0.013333 -1.74676e-06 -6.34256e-07     -53.5235 
         500     0.053333  0.000187596 -9.44942e-06     -53.5235 
         500         0.12      0.00087  -4.2047e-05     -53.5235 
         500     0.213332   0.00199285 -0.000109738     -53.5235 
         500     0.333332   0.00309963 -0.000209234     -53.5235 
         500         0.48   0.00377347 -0.000326734     -53.5235 
         500     0.653331   0.00393401  -0.00045152     -53.5235 
         500     0.853332    0.0036932 -0.000582342     -53.5235 
         500         1.08   0.00317687 -0.000720239     -53.5235 
         500      1.33333   0.00258296 -0.000857523     -53.5235 
         500      1.61333   0.00208339 -0.000980396     -53.5235 
         500         1.92   0.00159423  -0.00108065     -53.5235 
         500      2.25333   0.00107012  -0.00115325     -53.5236 
         500      2.61333  0.000533221  -0.00119281     -53.5236 
         500            3  2.88184e-05  -0.00119538     -53.5236 
         550            0            0            0     -48.4461 
         550     0.013333 -0.000218921  5.77971e-07     -48.4461 
         550     0.053333 -0.000943903  8.27751e-06     -48.4461 
         550         0.12  -0.00219392  3.47443e-05     -48.4461 
         550     0.213332  -0.00365744    8.455e-05     -48.4461 
         550     0.333332   -0.0048351  0.000149429     -48.4461 
         550         0.48  -0.00545344  0.000215967     -48.4461 
         550     0.653331   -0.0055952  0.000277307     -48.4461 
         550     0.853332  -0.00542942  0.000336985     -48.4461 
         550         1.08  -0.00498544  0.000403999     -48.4461 
         550      1.33333  -0.00427645  0.000482173     -48.4461 
         550      1.61333  -0.00346845  0.000563551     -48.4461 
         550         1.92  -0.00266746  0.000636545     -48.4461 
         550      2.25333  -0.00184135  0.000695427     -48.4461 
         550      2.61333 -0.000997532  0.000736204      -48.446 
         550            3 -0.000194008  0.000755673     -48.4459 
         600            0            0            0     -43.3666 
         600     0.013333  1.83539e-05 -2.84229e-07     -43.3666 
         600     0.053333  0.000148815 -4.11736e-06     -43.3666 
         600         0.12  0.000490163 -1.76702e-05     -43.3666 
         600     0.213332   0.00099756 -4.46152e-05     -43.3666 
         600     0.333332   0.00149841  -8.3318e-05     -43.3666 
         600         0.48   0.00186166 -0.000129598     -43.3666 
         600     0.653331   0.00206479 -0.000181289     -43.3666 
         600     0.853332   0.00211445 -0.000240036     -43.3666 
         600         1.08   0.00197755 -0.000309514     -43.3666 
         600      1.33333   0.00166262 -0.000390067     -43.3666 
         600      1.61333   0.00129848 -0.000474774     -43.3666 
         600         1.92  0.000977468 -0.000554356     -43.3666 
         600      2.25333  0.000669435 -0.000622795     -43.3666 
         600      2.61333  0.000358357 -0.000675975     -43.3666 
         600            3     6.19e-05 -0.000710435     -43.3667 
         650            0           -0           -0     -38.2915 
         650     0.013333 -6.07688e-05 -2.76609e-07     -38.2915 
         650     0.053333 -0.000114106 -4.29703e-06     -38.2915 
         650         0.12   8.6079e-05 -2.03355e-05     -38.2915 
         650     0.213332  0.000638893 -5.70342e-05     -38.2915 
         650     0.333332   0.00135848 -0.000116877     -38.2915 
         650         0.48   0.00194165 -0.000194238     -38.2915 
         650     0.653331   0.00221859 -0.000280582     -38.2915 
         650     0.853332   0.00221127  -0.00037003     -38.2915 
         650         1.08   0.00203588 -0.000459116     -38.2915 
         650      1.33333    0.0018183 -0.000543785     -38.2915 
         650      1.61333    0.0016095 -0.000620373     -38.2915 
         650         1.92   0.00136272 -0.000687199     -38.2915 
         650      2.25333   0.00106991 -0.000740957     -38.2915 
         650      2.61333  0.000747462 -0.000777882     -38.2915 
         650            3  0.000417472 -0.000794508     -38.2915 
         700            0           -0           -0     -33.2191 
         700     0.013333   0.00031143  4.12965e-07     -33.2191 
         700     0.053333  0.000994902  6.54741e-06     -33.2191 
         700         0.12   0.00148239    3.188e-05     -33.2191 
         700     0.213332   0.00136547    9.244e-05     -33.2191 
         700     0.333332  0.000730484  0.000196571     -33.2191 
         700         0.48  1.04772e-05   0.00034008     -33.2191 
         700     0.653331 -0.000431013  0.000512375     -33.2191 
         700     0.853332 -0.000488095  0.000704709     -33.2191 
         700         1.08 -0.000262623  0.000909866     -33.2191 
         700      1.33333  8.41724e-07    0.0011163     -33.2191 
         700      1.61333  9.28154e-05   0.00130967     -33.2191 
         700         1.92  7.41027e-05     0.001481     -33.2191 
         700      2.25333  4.42662e-05   0.00162359     -33.2191 
         700      2.61333   2.7158e-05    0.0017292     -33.2191 
         700            3  9.61203e-06   0.00178966     -33.2191 
         750            0           -0           -0     -28.1491 
         750     0.013333 -0.000315335  -2.6232e-07     -28.1491 
         750     0.053333  -0.00104334 -4.28664e-06     -28.1491 
         750         0.12  -0.00169257 -2.16658e-05     -28.1491 
         750     0.213332  -0.00186155 -6.51129e-05     -28.1491 
         750     0.333332  -0.00154431 -0.000142743     -28.1491 
         750         0.48  -0.00105742 -0.000253009     -28.1491 
         750     0.653331 -0.000720968 -0.000388254     -28.1491 
         750     0.853332 -0.000661301 -0.000541091     -28.1491 
         750         1.08 -0.000812194 -0.000704707     -28.1491 
         750      1.33333 -0.000959492  -0.00086829     -28.1491 
         750      1.61333 -0.000914074  -0.00101911     -28.1491 
         750         1.92 -0.000740366  -0.00115075     -28.1491 
         750      2.25333 -0.000552585  -0.00125993     -28.1491 
         750      2.61333 -0.000376464  -0.00134126     -28.1491 
         750            3 -0.000197187  -0.00138846     -28.1491 
         800            0           -0           -0     -23.0805 
         800     0.013333  0.000231999  6.96937e-08     -23.0805 
         800     0.053333  0.000818521   1.3105e-06     -23.0805 
         800         0.12   0.00146532  7.66851e-06     -23.0805 
         800     0.213332   0.00186885  2.60075e-05     -23.0805 
         800     0.333332   0.00192301  6.25097e-05     -23.0805 
         800         0.48   0.00176102  0.000118616     -23.0805 
         800     0.653331    0.0015883  0.000191272     -23.0805 
         800     0.853332   0.00152544  0.000275989     -23.0805 
         800         1.08   0.00155883  0.000367599     -23.0805 
         800      1.33333   0.00155725  0.000458473     -23.0805 
         800      1.61333   0.00140054  0.000540487     -23.0805 
         800         1.92    0.0011424  0.000610841     -23.0805 
         800      2.25333  0.000867732  0.000669196     -23.0805 
         800      2.61333  0.000595767  0.000713255     -23.0805 
         800            3  0.000318334  0.000739702     -23.0805 
         850            0           -0           -0     -18.0159 
         850     0.013333 -8.20793e-05  3.89911e-08     -18.0159 
         850     0.053333 -0.000300132   4.8437e-07     -18.0159 
         850         0.12 -0.000583412  1.53129e-06     -18.0159 
         850     0.213332 -0.000832001  2.07669e-06     -18.0159 
         850     0.333332 -0.000977011  6.04669e-08     -18.0159 
         850         0.48  -0.00101987 -5.94854e-06     -18.0159 
         850     0.653331  -0.00101392 -1.58706e-05     -18.0159 
         850     0.853332  -0.00100552 -2.84865e-05     -18.0159 
         850         1.08 -0.000996422 -4.17609e-05     -18.0159 
         850      1.33333 -0.000944499 -5.28895e-05     -18.0159 
         850      1.61333 -0.000820221 -5.96797e-05     -18.0159 
         850         1.92 -0.000663965 -6.29737e-05     -18.0159 
         850      2.25333 -0.000509523 -6.41774e-05     -18.0159 
         850      2.61333 -0.000359179 -6.38613e-05     -18.0159 
         850            3 -0.000206057 -6.19427e-05     -18.0159 
         900            0            0            0     -12.9524 
         900     0.013333   2.4216e-07 -1.63584e-08     -12.9524 
         900     0.053333    1.171e-05 -2.31087e-07     -12.9524 
         900         0.12  3.94102e-05 -9.52913e-07     -12.9524 
         900     0.213332  7.54431e-05 -2.28225e-06     -12.9524 
         900     0.333332  0.000103723 -4.00649e-06     -12.9524 
         900         0.48  0.000118889 -5.83924e-06     -12.9524 
         900     0.653331  0.000124327 -7.67819e-06     -12.9524 
         900     0.853332  0.000125505 -9.65812e-06     -12.9524 
         900         1.08  0.000122035 -1.20883e-05     -12.9524 
         900      1.33333  0.000107454 -1.53926e-05     -12.9524 
         900      1.61333  8.01515e-05 -1.97088e-05     -12.9524 
         900         1.92  5.27798e-05 -2.44589e-05     -12.9524 
         900      2.25333  3.05513e-05 -2.89337e-05     -12.9524 
         900      2.61333  1.11455e-05 -3.28145e-05     -12.9524 
         900            3 -8.53013e-06 -3.59178e-05     -12.9524 
         950            0           -0           -0     -7.89143 
         950     0.013333 -5.57263e-06  1.96351e-09     -7.89143 
         950     0.053333 -1.39871e-05  2.73998e-08     -7.89143 
         950         0.12 -2.11511e-05   1.0983e-07     -7.89143 
         950     0.213332 -2.54572e-05  2.51352e-07     -7.89143 
         950     0.333332  -2.8565e-05  4.12635e-07     -7.89143 
         950         0.48  -2.9471e-05  5.51366e-07     -7.89143 
         950     0.653331  -2.9223e-05   6.5801e-07     -7.89143 
         950     0.853332 -2.88492e-05  7.57679e-07     -7.89143 
         950         1.08 -2.83543e-05  9.00295e-07     -7.89143 
         950      1.33333 -2.66414e-05  1.15028e-06     -7.89143 
         950      1.61333 -2.32259e-05  1.58302e-06     -7.89143 
         950         1.92  -2.0009e-05  1.99915e-06     -7.89143 
         950      2.25333 -1.79619e-05  2.45121e-06     -7.89143 
         950      2.61333 -1.67168e-05  2.83128e-06     -7.89143 
         950            3 -1.57261e-05  3.01757e-06     -7.89143 
        1000            0           -0           -0     -2.83243 
        1000     0.013333 -4.66439e-06 -6.44084e-10     -2.83243 
        1000     0.053333 -9.93715e-06 -9.30196e-09     -2.83243 
        1000         0.12  -1.1712e-05 -3.98949e-08     -2.83243 
        1000     0.213332 -9.97861e-06 -9.99917e-08     -2.83243 
        1000     0.333332 -8.69852e-06 -1.83991e-07     -2.83243 
        1000         0.48 -7.77319e-06 -2.80187e-07     -2.83243 
        1000     0.653331 -7.35032e-06 -3.81302e-07     -2.83243 
        1000     0.853332 -7.22747e-06 -4.91929e-07     -2.83243 
        1000         1.08 -7.37951e-06 -6.16522e-07     -2.83243 
        1000      1.33333 -7.97875e-06  -7.8179e-07     -2.83243 
        1000      1.61333 -9.08371e-06 -9.42506e-07     -2.83243 
        1000         1.92 -1.03004e-05  -1.2187e-06     -2.83243 
        1000      2.25333 -1.13056e-05  -1.3545e-06     -2.83243 
        1000      2.61333 -1.23547e-05 -1.46368e-06     -2.83243 
        1000            3 -1.37513e-05 -1.68964e-06     -2.83243 
