Variables = x, y, u, v, p

Zone, I=416, F=POINT
         -50            0            0            0     -112.616 
         -50     0.013333 -0.000109868 -2.58528e-08     -112.616 
         -50     0.053333 -0.000110339 -8.86061e-08     -112.616 
         -50         0.12 -0.000117491 -3.13445e-07     -112.616 
         -50     0.213332 -0.000128592 -8.56912e-07     -112.616 
         -50     0.333332 -0.000139843 -1.52438e-06     -112.616 
         -50         0.48 -0.000150518 -1.74897e-06     -112.616 
         -50     0.653331 -0.000157554 -3.63852e-06     -112.616 
         -50     0.853332 -0.000157052 -4.64846e-06     -112.615 
         -50         1.08 -0.000149087 -4.51382e-06     -112.615 
         -50      1.33333  -0.00013648 -4.99768e-06     -112.615 
         -50      1.61333 -0.000121014 -5.26179e-06     -112.614 
         -50         1.92 -0.000106765  -4.1102e-06     -112.613 
         -50      2.25333 -0.000101154 -5.83515e-06     -112.612 
         -50      2.61333 -0.000105915  -1.1322e-05     -112.611 
         -50            3 -0.000110842 -1.58093e-05     -112.609 
         -25            0 -2.10112e-19 -8.78974e-24     -109.576 
         -25     0.013333 -8.82512e-05 -5.43669e-09     -109.576 
         -25     0.053333 -7.53535e-05  7.33491e-10     -109.576 
         -25         0.12  -6.5436e-05  4.83324e-08     -109.576 
         -25     0.213332 -5.95782e-05  1.59154e-07     -109.576 
         -25     0.333332 -5.43577e-05  3.03966e-07     -109.576 
         -25         0.48 -4.94738e-05  4.75971e-07     -109.576 
         -25     0.653331 -4.68728e-05  7.04484e-07     -109.576 
         -25     0.853332 -4.88157e-05  6.83898e-07     -109.576 
         -25         1.08 -5.55954e-05  3.68469e-07     -109.576 
         -25      1.33333 -6.40881e-05 -1.22733e-07     -109.576 
         -25      1.61333  -7.2714e-05 -6.81103e-07     -109.576 
         -25         1.92  -8.2072e-05 -1.77274e-06     -109.576 
         -25      2.25333  -8.5382e-05 -1.95439e-06     -109.575 
         -25      2.61333 -8.24452e-05 -1.58517e-06     -109.575 
         -25            3 -8.00671e-05 -2.27707e-06     -109.575 
           0            0            0            0     -106.668 
           0     0.013333 -0.000206413  0.000161635     -106.672 
           0     0.053333 -0.000157997  8.30067e-05     -106.678 
           0         0.12 -0.000123581  6.26396e-05     -106.685 
           0     0.213332 -0.000112635  4.72647e-05     -106.692 
           0     0.333332 -0.000108545   3.7867e-05       -106.7 
           0         0.48 -0.000104675  3.06793e-05     -106.707 
           0     0.653331 -0.000101242  2.48401e-05     -106.715 
           0     0.853332 -9.74532e-05  1.98621e-05     -106.722 
           0         1.08 -9.12009e-05  1.55863e-05      -106.73 
           0      1.33333 -8.28023e-05  1.19167e-05     -106.737 
           0      1.61333 -7.47844e-05  8.83309e-06     -106.744 
           0         1.92 -6.81315e-05  6.20909e-06     -106.751 
           0      2.25333 -6.13253e-05  4.20074e-06     -106.758 
           0      2.61333 -5.76014e-05  2.09442e-06     -106.764 
           0            3 -6.37437e-05 -2.12264e-06      -106.77 
          20            0  0.000259512 -0.000332571     -104.851 
          20     0.013333  0.000261475  -0.00033307     -104.851 
          20     0.053333  0.000268953 -0.000334207     -104.851 
          20         0.12  0.000287043 -0.000334872     -104.851 
          20     0.213332  0.000324381 -0.000333282      -104.85 
          20     0.333332  0.000390942 -0.000327259      -104.85 
          20         0.48  0.000477757 -0.000315587      -104.85 
          20     0.653331  0.000535182 -0.000299215     -104.849 
          20     0.853332  0.000518268 -0.000280218     -104.849 
          20         1.08  0.000416244 -0.000259527     -104.848 
          20      1.33333  0.000258682 -0.000235784     -104.847 
          20      1.61333  8.75087e-05 -0.000208406     -104.846 
          20         1.92 -7.21928e-05 -0.000178349     -104.845 
          20      2.25333 -0.000195366 -0.000147503     -104.844 
          20      2.61333 -0.000270225 -0.000117372     -104.842 
          20            3 -0.000298424 -8.82568e-05     -104.841 
          40            0 -5.65801e-20 -3.98591e-24      -102.76 
          40     0.013333  4.03119e-05 -3.29181e-07      -102.76 
          40     0.053333  0.000427586 -4.31942e-06      -102.76 
          40         0.12  0.000981713 -1.59511e-05      -102.76 
          40     0.213332    0.0014815 -3.25211e-05      -102.76 
          40     0.333332   0.00176859 -4.71961e-05      -102.76 
          40         0.48   0.00184886 -5.90623e-05      -102.76 
          40     0.653331   0.00181177 -7.22447e-05      -102.76 
          40     0.853332   0.00175323 -8.34805e-05      -102.76 
          40         1.08   0.00155682 -9.10689e-05      -102.76 
          40      1.33333   0.00113297 -9.98465e-05      -102.76 
          40      1.61333  0.000628025 -0.000107619      -102.76 
          40         1.92  0.000149042 -0.000111945      -102.76 
          40      2.25333 -0.000223389 -0.000111767      -102.76 
          40      2.61333 -0.000458539 -0.000106864     -102.759 
          40            3 -0.000568982 -0.000100877     -102.759 
          60            0           -0           -0     -100.659 
          60     0.013333  2.95106e-05 -1.82449e-07     -100.659 
          60     0.053333  0.000347598 -2.27412e-06     -100.659 
          60         0.12  0.000740533 -7.43652e-06     -100.659 
          60     0.213332   0.00102054   -1.187e-05     -100.659 
          60     0.333332   0.00110884 -9.30608e-06     -100.659 
          60         0.48   0.00108647  2.44157e-06     -100.659 
          60     0.653331   0.00104085  1.90065e-05     -100.659 
          60     0.853332  0.000952704  3.21113e-05     -100.659 
          60         1.08  0.000770523  3.65058e-05     -100.659 
          60      1.33333  0.000515922  3.31769e-05     -100.659 
          60      1.61333  0.000248692  2.84252e-05     -100.659 
          60         1.92 -1.90881e-05  2.36891e-05     -100.659 
          60      2.25333 -0.000216883  1.89516e-05     -100.659 
          60      2.61333 -0.000334814   1.5224e-05     -100.659 
          60            3 -0.000396382  1.12696e-05     -100.659 
          80            0            0            0     -98.5794 
          80     0.013333  3.56041e-05 -1.16674e-07     -98.5794 
          80     0.053333  0.000354868 -1.30209e-06     -98.5794 
          80         0.12   0.00072156 -3.12396e-06     -98.5794 
          80     0.213332  0.000955119 -6.94858e-07     -98.5794 
          80     0.333332   0.00100994  1.17101e-05     -98.5794 
          80         0.48  0.000990638  3.45724e-05     -98.5794 
          80     0.653331  0.000963017  6.11016e-05     -98.5794 
          80     0.853332  0.000824744  7.89777e-05     -98.5794 
          80         1.08  0.000527165  8.24743e-05     -98.5794 
          80      1.33333   0.00026335  7.94389e-05     -98.5794 
          80      1.61333  8.78679e-05  7.69425e-05     -98.5794 
          80         1.92 -8.41507e-05  7.25653e-05     -98.5794 
          80      2.25333 -0.000215736  6.57516e-05     -98.5794 
          80      2.61333 -0.000295527  5.78804e-05     -98.5794 
          80            3 -0.000334614  4.92011e-05     -98.5795 
         100            0 -6.39595e-20  -6.7253e-26     -96.5061 
         100     0.013333  7.40154e-06 -1.27777e-08     -96.5061 
         100     0.053333  0.000238658  4.37328e-08     -96.5061 
         100         0.12  0.000481312  1.58301e-06     -96.5061 
         100     0.213332  0.000618026  7.95544e-06     -96.5061 
         100     0.333332  0.000633158  2.21913e-05     -96.5061 
         100         0.48  0.000600997  4.49269e-05     -96.5061 
         100     0.653331  0.000584798  7.39255e-05     -96.5061 
         100     0.853332   0.00053856  0.000102623     -96.5061 
         100         1.08  0.000385294  0.000123879     -96.5061 
         100      1.33333  0.000225487  0.000138901     -96.5061 
         100      1.61333  0.000115799  0.000151621     -96.5061 
         100         1.92 -1.21616e-05  0.000158177     -96.5061 
         100      2.25333 -0.000125169  0.000157334     -96.5061 
         100      2.61333 -0.000201448  0.000150574     -96.5061 
         100            3 -0.000244113  0.000139165     -96.5061 
         150            0            0            0     -91.3276 
         150     0.013333  8.99066e-05 -6.77729e-08     -91.3276 
         150     0.053333  0.000542517 -5.94669e-07     -91.3276 
         150         0.12   0.00106023 -1.01284e-07     -91.3276 
         150     0.213332   0.00141539  6.92829e-06     -91.3276 
         150     0.333332   0.00154191  2.63719e-05     -91.3276 
         150         0.48    0.0015445  5.95495e-05     -91.3276 
         150     0.653331   0.00152977  0.000102577     -91.3276 
         150     0.853332   0.00146876  0.000147053     -91.3276 
         150         1.08   0.00126363  0.000183999     -91.3276 
         150      1.33333  0.000954204  0.000210724     -91.3276 
         150      1.61333  0.000629327  0.000230114     -91.3276 
         150         1.92  0.000286446   0.00024019     -91.3277 
         150      2.25333 -1.46563e-05  0.000239616     -91.3277 
         150      2.61333 -0.000248575  0.000230114     -91.3277 
         150            3 -0.000416879   0.00021277     -91.3278 
         200            0            0            0     -86.1486 
         200     0.013333 -0.000203389 -5.47428e-08     -86.1486 
         200     0.053333 -0.000482979 -1.07221e-06     -86.1486 
         200         0.12 -0.000748735 -6.36839e-06     -86.1486 
         200     0.213332 -0.000846749 -2.12781e-05     -86.1486 
         200     0.333332 -0.000776435 -4.94822e-05     -86.1486 
         200         0.48 -0.000658466 -9.04144e-05     -86.1486 
         200     0.653331 -0.000593588 -0.000140581     -86.1486 
         200     0.853332 -0.000579519 -0.000194765     -86.1486 
         200         1.08 -0.000537101 -0.000246509     -86.1486 
         200      1.33333 -0.000436569 -0.000291304     -86.1486 
         200      1.61333 -0.000319818 -0.000328086     -86.1486 
         200         1.92 -0.000200895 -0.000353739     -86.1486 
         200      2.25333 -9.00644e-05 -0.000365594     -86.1485 
         200      2.61333 -4.59783e-07 -0.000363682     -86.1485 
         200            3  6.12173e-05 -0.000349181     -86.1485 
         250            0           -0           -0     -80.9652 
         250     0.013333 -3.65781e-05  8.05989e-08     -80.9652 
         250     0.053333  5.93237e-05  1.33276e-06     -80.9652 
         250         0.12  8.77384e-05  6.76611e-06     -80.9652 
         250     0.213332 -1.14308e-05  2.00923e-05     -80.9652 
         250     0.333332 -0.000183415  4.27876e-05     -80.9652 
         250         0.48 -0.000324548  7.28032e-05     -80.9652 
         250     0.653331 -0.000382623   0.00010653     -80.9652 
         250     0.853332 -0.000377629  0.000140693     -80.9652 
         250         1.08 -0.000355565  0.000172686     -80.9652 
         250      1.33333 -0.000330755  0.000201183     -80.9652 
         250      1.61333 -0.000291751  0.000225537     -80.9652 
         250         1.92 -0.000237498  0.000243544     -80.9652 
         250      2.25333  -0.00017928  0.000253344     -80.9652 
         250      2.61333 -0.000121419  0.000254221     -80.9652 
         250            3 -6.91043e-05   0.00024638     -80.9652 
         300            0            0            0     -75.7787 
         300     0.013333  0.000188433  9.86401e-08     -75.7787 
         300     0.053333  0.000849054  1.95538e-06     -75.7787 
         300         0.12   0.00149243  1.18642e-05     -75.7787 
         300     0.213332   0.00175733  4.07352e-05     -75.7787 
         300     0.333332   0.00160318  9.74383e-05     -75.7787 
         300         0.48   0.00127636  0.000182366     -75.7787 
         300     0.653331   0.00102799  0.000288856     -75.7787 
         300     0.853332  0.000922474  0.000407551     -75.7787 
         300         1.08  0.000850217  0.000527688     -75.7787 
         300      1.33333  0.000694827   0.00063904     -75.7787 
         300      1.61333  0.000475187  0.000735777     -75.7787 
         300         1.92  0.000250145  0.000811857     -75.7788 
         300      2.25333  3.25043e-05  0.000860855     -75.7788 
         300      2.61333 -0.000162162  0.000879303     -75.7788 
         300            3 -0.000316149  0.000866513     -75.7788 
         350            0           -0           -0     -70.5895 
         350     0.013333  5.31558e-06 -2.93305e-07     -70.5895 
         350     0.053333  0.000308982  -4.1113e-06     -70.5895 
         350         0.12  0.000812463 -1.66803e-05     -70.5895 
         350     0.213332   0.00136235 -3.89467e-05     -70.5895 
         350     0.333332   0.00176592 -6.61776e-05     -70.5895 
         350         0.48   0.00196209 -9.33149e-05     -70.5895 
         350     0.653331   0.00200371 -0.000120066     -70.5895 
         350     0.853332   0.00191195  -0.00015097     -70.5895 
         350         1.08   0.00165486 -0.000190738     -70.5895 
         350      1.33333   0.00128969 -0.000237695     -70.5895 
         350      1.61333  0.000938504 -0.000283624     -70.5896 
         350         1.92  0.000593222 -0.000322772     -70.5896 
         350      2.25333  0.000255577 -0.000352559     -70.5896 
         350      2.61333 -5.81279e-05 -0.000370637     -70.5896 
         350            3 -0.000324683 -0.000375886     -70.5897 
         400            0            0            0     -65.3974 
         400     0.013333 -6.53486e-05 -1.73521e-07     -65.3974 
         400     0.053333  3.83237e-05 -2.55095e-06     -65.3974 
         400         0.12  0.000277258 -1.11398e-05     -65.3974 
         400     0.213332  0.000616281 -2.84973e-05     -65.3974 
         400     0.333332  0.000933175 -5.33485e-05     -65.3974 
         400         0.48   0.00113024 -8.20039e-05     -65.3974 
         400     0.653331   0.00119805 -0.000111788     -65.3974 
         400     0.853332   0.00116291 -0.000142732     -65.3974 
         400         1.08   0.00103648 -0.000176004     -65.3974 
         400      1.33333  0.000854321 -0.000210333     -65.3974 
         400      1.61333  0.000671621 -0.000241584     -65.3974 
         400         1.92  0.000479845 -0.000266744     -65.3974 
         400      2.25333  0.000278993 -0.000284096     -65.3974 
         400      2.61333  7.94054e-05 -0.000292351     -65.3974 
         400            3 -0.000103118  -0.00029085     -65.3974 
         450            0            0            0     -60.2018 
         450     0.013333 -0.000130824  2.99377e-07     -60.2018 
         450     0.053333 -0.000332151  4.39119e-06     -60.2018 
         450         0.12 -0.000781477  1.90987e-05     -60.2018 
         450     0.213332  -0.00139506  4.85043e-05     -60.2018 
         450     0.333332  -0.00193926  8.98133e-05     -60.2018 
         450         0.48  -0.00224498  0.000136263     -60.2018 
         450     0.653331  -0.00230826  0.000183515     -60.2018 
         450     0.853332  -0.00219303  0.000231857     -60.2018 
         450         1.08  -0.00195092  0.000282531     -60.2018 
         450      1.33333  -0.00164953  0.000333438     -60.2018 
         450      1.61333  -0.00134628  0.000380086     -60.2018 
         450         1.92   -0.0010252   0.00041884     -60.2018 
         450      2.25333 -0.000688462  0.000447112     -60.2018 
         450      2.61333 -0.000352812  0.000462406     -60.2017 
         450            3 -4.30036e-05  0.000463229     -60.2017 
         500            0            0            0     -55.0006 
         500     0.013333  8.86529e-05 -1.99746e-08     -55.0006 
         500     0.053333   0.00053562   1.4176e-08     -55.0006 
         500         0.12   0.00103439  2.07731e-06     -55.0006 
         500     0.213332   0.00134899  1.15411e-05     -55.0006 
         500     0.333332   0.00140257  3.40307e-05     -55.0006 
         500         0.48   0.00131119  7.07284e-05     -55.0006 
         500     0.653331   0.00123154  0.000117976     -55.0006 
         500     0.853332   0.00121054  0.000169739     -55.0006 
         500         1.08   0.00116307  0.000218697     -55.0006 
         500      1.33333  0.000995073  0.000258743     -55.0006 
         500      1.61333  0.000750941  0.000289478     -55.0006 
         500         1.92  0.000517334  0.000313235     -55.0006 
         500      2.25333  0.000290833  0.000328974     -55.0006 
         500      2.61333  6.84768e-05  0.000335213     -55.0006 
         500            3 -0.000134608  0.000331072     -55.0007 
         550            0            0            0     -49.7975 
         550     0.013333 -4.52151e-05 -3.60572e-07     -49.7975 
         550     0.053333  0.000164776 -5.30718e-06     -49.7975 
         550         0.12  0.000655577 -2.31785e-05     -49.7975 
         550     0.213332   0.00134295 -5.90798e-05     -49.7975 
         550     0.333332   0.00195268 -0.000109662     -49.7975 
         550         0.48    0.0022744 -0.000166638     -49.7975 
         550     0.653331   0.00230247 -0.000224911     -49.7975 
         550     0.853332   0.00211948 -0.000285464     -49.7975 
         550         1.08   0.00179124  -0.00035043     -49.7975 
         550      1.33333   0.00142062 -0.000416466     -49.7975 
         550      1.61333   0.00111258 -0.000476062     -49.7975 
         550         1.92  0.000829762 -0.000524671     -49.7975 
         550      2.25333   0.00053199 -0.000560362     -49.7975 
         550      2.61333  0.000225475 -0.000580686     -49.7976 
         550            3 -6.25426e-05 -0.000583553     -49.7976 
         600            0            0            0     -44.5956 
         600     0.013333 -0.000417144  1.65237e-07     -44.5956 
         600     0.053333  -0.00130407  1.90851e-06     -44.5956 
         600         0.12  -0.00241013  4.82444e-06     -44.5956 
         600     0.213332  -0.00325251  1.01473e-06     -44.5956 
         600     0.333332  -0.00354321 -2.18214e-05     -44.5956 
         600         0.48  -0.00340318 -7.01969e-05     -44.5956 
         600     0.653331  -0.00315182  -0.00013978     -44.5956 
         600     0.853332  -0.00295422 -0.000218824     -44.5956 
         600         1.08  -0.00271353 -0.000293334     -44.5956 
         600      1.33333  -0.00230013 -0.000354238     -44.5956 
         600      1.61333  -0.00180155 -0.000403303     -44.5956 
         600         1.92   -0.0013451 -0.000445708     -44.5956 
         600      2.25333 -0.000900432 -0.000479723     -44.5956 
         600      2.61333 -0.000453251 -0.000502175     -44.5956 
         600            3 -3.17222e-05 -0.000510739     -44.5955 
         650            0           -0           -0     -39.3906 
         650     0.013333  0.000270342  2.97312e-07     -39.3906 
         650     0.053333   0.00109393  4.94143e-06     -39.3906 
         650         0.12   0.00180555  2.54087e-05     -39.3906 
         650     0.213332   0.00194431  7.72374e-05     -39.3906 
         650     0.333332   0.00153286  0.000170045     -39.3906 
         650         0.48  0.000974686  0.000300994     -39.3906 
         650     0.653331   0.00064481  0.000459733     -39.3906 
         650     0.853332  0.000655604  0.000636217     -39.3906 
         650         1.08  0.000861544  0.000819878     -39.3906 
         650      1.33333  0.000962779  0.000995546     -39.3906 
         650      1.61333  0.000811561   0.00115026     -39.3906 
         650         1.92  0.000587906   0.00128136     -39.3906 
         650      2.25333  0.000377684   0.00138556     -39.3906 
         650      2.61333  0.000181185   0.00145619     -39.3906 
         650            3 -1.04582e-05   0.00148665     -39.3906 
         700            0           -0           -0     -34.1857 
         700     0.013333 -0.000327456 -4.57099e-07     -34.1857 
         700     0.053333 -0.000806898 -7.12952e-06     -34.1857 
         700         0.12  -0.00101542   -3.394e-05     -34.1857 
         700     0.213332 -0.000641559 -9.59961e-05     -34.1857 
         700     0.333332  0.000141089  -0.00019921     -34.1857 
         700         0.48  0.000887579 -0.000337123     -34.1857 
         700     0.653331   0.00128796 -0.000498723     -34.1857 
         700     0.853332    0.0012884 -0.000676843     -34.1857 
         700         1.08  0.000992494 -0.000866908     -34.1857 
         700      1.33333  0.000628763  -0.00105904     -34.1857 
         700      1.61333   0.00042771   -0.0012381     -34.1857 
         700         1.92  0.000344207  -0.00139433     -34.1857 
         700      2.25333   0.00026035  -0.00152209     -34.1857 
         700      2.61333  0.000150524  -0.00161455     -34.1857 
         700            3  4.01937e-05  -0.00166454     -34.1857 
         750            0           -0           -0      -28.979 
         750     0.013333  0.000274537  2.69164e-07      -28.979 
         750     0.053333   0.00112619  4.42871e-06      -28.979 
         750         0.12   0.00191857  2.26068e-05      -28.979 
         750     0.213332   0.00218622  6.87394e-05      -28.979 
         750     0.333332   0.00188613  0.000152561      -28.979 
         750         0.48    0.0013488  0.000273576      -28.979 
         750     0.653331  0.000936393  0.000423851      -28.979 
         750     0.853332  0.000806986  0.000594709      -28.979 
         750         1.08  0.000903484  0.000778161      -28.979 
         750      1.33333   0.00101995  0.000963318      -28.979 
         750      1.61333  0.000968736   0.00113739      -28.979 
         750         1.92  0.000783388   0.00129244      -28.979 
         750      2.25333  0.000570494   0.00142299      -28.979 
         750      2.61333  0.000362128   0.00152236      -28.979 
         750            3  0.000149263   0.00158335     -28.9791 
         800            0           -0           -0     -23.7716 
         800     0.013333 -0.000402917 -7.05651e-08     -23.7716 
         800     0.053333  -0.00119387 -1.47958e-06     -23.7716 
         800         0.12  -0.00205502 -9.47942e-06     -23.7716 
         800     0.213332  -0.00255399 -3.41586e-05     -23.7716 
         800     0.333332  -0.00254493 -8.51701e-05     -23.7716 
         800         0.48  -0.00224279 -0.000164658     -23.7716 
         800     0.653331  -0.00196825 -0.000266706     -23.7716 
         800     0.853332  -0.00187859 -0.000382216     -23.7716 
         800         1.08  -0.00190054 -0.000501305     -23.7716 
         800      1.33333  -0.00183302 -0.000613453     -23.7716 
         800      1.61333  -0.00157776 -0.000711438     -23.7716 
         800         1.92  -0.00125494 -0.000795279     -23.7716 
         800      2.25333 -0.000938823 -0.000864594     -23.7715 
         800      2.61333 -0.000631966 -0.000916032     -23.7715 
         800            3 -0.000323816 -0.000945308     -23.7715 
         850            0           -0           -0     -18.5594 
         850     0.013333   0.00038218 -6.60054e-08     -18.5594 
         850     0.053333   0.00161306 -4.16379e-07     -18.5594 
         850         0.12   0.00309316  2.02421e-06     -18.5594 
         850     0.213332   0.00418143   1.8129e-05     -18.5594 
         850     0.333332   0.00451237  6.26571e-05     -18.5594 
         850         0.48   0.00423082   0.00014376     -18.5594 
         850     0.653331   0.00376893  0.000257731     -18.5594 
         850     0.853332   0.00343593  0.000392918     -18.5594 
         850         1.08   0.00322376   0.00053487     -18.5594 
         850      1.33333   0.00292377  0.000669805     -18.5594 
         850      1.61333   0.00243929  0.000790358     -18.5594 
         850         1.92   0.00191174  0.000898035     -18.5594 
         850      2.25333   0.00139836   0.00099261     -18.5594 
         850      2.61333  0.000886809   0.00106921     -18.5594 
         850            3  0.000368413   0.00112173     -18.5595 
         900            0            0            0     -13.3505 
         900     0.013333 -0.000304631  5.44114e-07     -13.3505 
         900     0.053333  -0.00104772  7.89208e-06     -13.3505 
         900         0.12  -0.00238756  3.38127e-05     -13.3505 
         900     0.213332   -0.0040522  8.44952e-05     -13.3505 
         900     0.333332  -0.00550144  0.000153699     -13.3505 
         900         0.48  -0.00635265  0.000227986     -13.3505 
         900     0.653331  -0.00661806  0.000298079     -13.3505 
         900     0.853332  -0.00650873  0.000364793     -13.3505 
         900         1.08  -0.00613074  0.000436512     -13.3505 
         900      1.33333  -0.00547143  0.000520621     -13.3505 
         900      1.61333  -0.00462944  0.000614438     -13.3505 
         900         1.92  -0.00381614  0.000705857     -13.3505 
         900      2.25333  -0.00301829   0.00078625     -13.3505 
         900      2.61333  -0.00219096  0.000851543     -13.3505 
         900            3  -0.00133288  0.000898676     -13.3504 
         950            0           -0           -0     -8.13609 
         950     0.013333 -0.000475793 -1.22895e-07     -8.13609 
         950     0.053333  -0.00145559 -2.19016e-06     -8.13609 
         950         0.12  -0.00255819 -1.22424e-05     -8.13609 
         950     0.213332  -0.00328381 -4.06007e-05     -8.13609 
         950     0.333332  -0.00341798 -9.73584e-05     -8.13609 
         950         0.48   -0.0031223 -0.000186518     -8.13609 
         950     0.653331  -0.00272191  -0.00030491      -8.1361 
         950     0.853332  -0.00245158  -0.00044606      -8.1361 
         950         1.08  -0.00236537 -0.000603194      -8.1361 
         950      1.33333  -0.00235667 -0.000768196      -8.1361 
         950      1.61333   -0.0022482 -0.000930527     -8.13609 
         950         1.92  -0.00196322  -0.00108075     -8.13609 
         950      2.25333  -0.00160184  -0.00121384     -8.13608 
         950      2.61333  -0.00122007  -0.00132459     -8.13607 
         950            3 -0.000820832  -0.00140703     -8.13605 
        1000            0           -0           -0     -2.91959 
        1000     0.013333 -0.000191884  -3.6961e-07     -2.91959 
        1000     0.053333 -0.000333671 -5.62535e-06     -2.91959 
        1000         0.12 -0.000166544 -2.62008e-05     -2.91959 
        1000     0.213332  0.000485958 -7.28537e-05     -2.91959 
        1000     0.333332   0.00143059 -0.000149504     -2.91959 
        1000         0.48   0.00227543  -0.00025101     -2.91959 
        1000     0.653331   0.00275854 -0.000368299     -2.91959 
        1000     0.853332   0.00285896 -0.000495036     -2.91959 
        1000         1.08   0.00267668 -0.000628963     -2.91959 
        1000      1.33333   0.00233632 -0.000767967     -2.91959 
        1000      1.61333   0.00196675  -0.00090685     -2.91959 
        1000         1.92    0.0016421  -0.00103875     -2.91959 
        1000      2.25333   0.00132448  -0.00115732      -2.9196 
        1000      2.61333  0.000988576  -0.00125702     -2.91961 
        1000            3  0.000634244  -0.00133213     -2.91963 
