Variables = x, y, u, v, p

Zone, I=416, F=POINT
         -50            0            0            0      48.5431 
         -50     0.013333  0.000202821  2.69172e-08      48.5431 
         -50     0.053333  0.000204686  1.69895e-07      48.5431 
         -50         0.12  0.000205619  5.23514e-07      48.5431 
         -50     0.213332  0.000211031  1.07634e-06      48.5431 
         -50     0.333332  0.000218288  2.17622e-06      48.5431 
         -50         0.48  0.000226005  3.46525e-06       48.543 
         -50     0.653331     0.000233  4.61209e-06       48.543 
         -50     0.853332  0.000236244  6.55322e-06      48.5429 
         -50         1.08  0.000233571  7.81447e-06      48.5427 
         -50      1.33333  0.000226205  9.02997e-06      48.5425 
         -50      1.61333  0.000216953   9.8645e-06      48.5423 
         -50         1.92  0.000207835  1.05979e-05       48.542 
         -50      2.25333  0.000197892  1.08672e-05      48.5415 
         -50      2.61333  0.000192397  1.27868e-05       48.541 
         -50            3  0.000194183  1.70804e-05      48.5403 
         -25            0  1.83553e-19  2.38752e-24      47.2153 
         -25     0.013333  0.000173291 -4.62116e-09      47.2153 
         -25     0.053333  0.000179557 -1.30166e-07      47.2153 
         -25         0.12  0.000191285  -5.7953e-07      47.2153 
         -25     0.213332  0.000208008  -1.3748e-06      47.2153 
         -25     0.333332  0.000220365  -2.2861e-06      47.2153 
         -25         0.48  0.000225699  -3.0567e-06      47.2153 
         -25     0.653331  0.000225499 -3.56463e-06      47.2153 
         -25     0.853332   0.00021943  -4.1453e-06      47.2152 
         -25         1.08  0.000208069 -4.56142e-06      47.2152 
         -25      1.33333  0.000194652 -4.78019e-06      47.2152 
         -25      1.61333  0.000181387 -4.49214e-06      47.2151 
         -25         1.92  0.000170288 -4.07904e-06       47.215 
         -25      2.25333   0.00015886 -3.11873e-06      47.2149 
         -25      2.61333  0.000151594 -1.16868e-06      47.2147 
         -25            3  0.000152904  1.29536e-06      47.2146 
           0            0            0            0      45.9681 
           0     0.013333  0.000491859 -0.000276665      45.9697 
           0     0.053333   0.00034746  -0.00015304      45.9718 
           0         0.12  0.000304467 -0.000101936      45.9741 
           0     0.213332  0.000288317 -7.85245e-05      45.9765 
           0     0.333332  0.000273417 -6.25815e-05      45.9789 
           0         0.48   0.00025788 -4.95189e-05      45.9813 
           0     0.653331  0.000244175 -3.84788e-05      45.9837 
           0     0.853332  0.000227898  -2.9083e-05      45.9859 
           0         1.08  0.000207205  -2.1148e-05      45.9881 
           0      1.33333  0.000185154 -1.45282e-05      45.9902 
           0      1.61333  0.000163468 -9.16714e-06      45.9921 
           0         1.92  0.000142971 -4.88564e-06       45.994 
           0      2.25333  0.000131634 -1.70008e-06      45.9958 
           0      2.61333  0.000125031 -9.94531e-07      45.9974 
           0            3  0.000111818 -5.87749e-06       45.999 
          20            0  0.000638357  -0.00014715      45.1135 
          20     0.013333  0.000619962 -0.000146664      45.1135 
          20     0.053333  0.000566323 -0.000144553      45.1135 
          20         0.12  0.000484984 -0.000138725      45.1135 
          20     0.213332  0.000396711 -0.000125424      45.1135 
          20     0.333332  0.000333974 -9.98326e-05      45.1135 
          20         0.48  0.000303247 -6.03869e-05      45.1135 
          20     0.653331  0.000276026 -1.03105e-05      45.1135 
          20     0.853332  0.000219951  4.44363e-05      45.1134 
          20         1.08  0.000122658   9.7899e-05      45.1134 
          20      1.33333  2.13025e-06  0.000145659      45.1133 
          20      1.61333  -0.00010966  0.000184053      45.1133 
          20         1.92 -0.000193855  0.000210385      45.1132 
          20      2.25333 -0.000230596  0.000223984      45.1131 
          20      2.61333 -0.000228241  0.000226373      45.1129 
          20            3 -0.000197738  0.000221395      45.1128 
          40            0           -0           -0      44.2188 
          40     0.013333  0.000490925  9.59165e-08      44.2188 
          40     0.053333   0.00125567  2.21763e-06      44.2188 
          40         0.12   0.00196446  1.55228e-05      44.2188 
          40     0.213332   0.00230406  5.79092e-05      44.2188 
          40     0.333332    0.0023812  0.000144456      44.2188 
          40         0.48   0.00230481  0.000267772      44.2187 
          40     0.653331   0.00199222  0.000403596      44.2187 
          40     0.853332    0.0017006  0.000554276      44.2187 
          40         1.08   0.00147093  0.000714952      44.2186 
          40      1.33333   0.00109056    0.0008523      44.2185 
          40      1.61333  0.000632482  0.000945623      44.2183 
          40         1.92  0.000196161  0.000986708      44.2182 
          40      2.25333 -0.000164174  0.000974191      44.2179 
          40      2.61333 -0.000382796  0.000918346      44.2176 
          40            3 -0.000450887  0.000837011      44.2173 
          60            0           -0           -0      43.2977 
          60     0.013333  0.000427637  1.16507e-07      43.2977 
          60     0.053333   0.00105318  2.45976e-06      43.2977 
          60         0.12   0.00159963  1.52067e-05      43.2977 
          60     0.213332   0.00174803  5.10657e-05      43.2977 
          60     0.333332   0.00157283  0.000117558      43.2977 
          60         0.48   0.00139812   0.00021275      43.2977 
          60     0.653331    0.0014444  0.000328687      43.2977 
          60     0.853332   0.00159059  0.000448356      43.2977 
          60         1.08   0.00152805  0.000551591      43.2977 
          60      1.33333   0.00120428  0.000628924      43.2977 
          60      1.61333  0.000769741  0.000681067      43.2977 
          60         1.92  0.000325588  0.000699717      43.2977 
          60      2.25333 -2.02048e-05  0.000682904      43.2976 
          60      2.61333 -0.000231097  0.000639826      43.2975 
          60            3 -0.000344413  0.000578619      43.2975 
          80            0  2.51384e-19  7.64595e-26      42.3889 
          80     0.013333  0.000390858 -8.87139e-08      42.3889 
          80     0.053333  0.000986005 -7.11717e-07      42.3889 
          80         0.12   0.00163864  6.80491e-07      42.3889 
          80     0.213332   0.00202319  1.30166e-05      42.3889 
          80     0.333332   0.00205781  4.60284e-05      42.3889 
          80         0.48    0.0019309  0.000102044      42.3889 
          80     0.653331   0.00183601  0.000174969      42.3889 
          80     0.853332   0.00175808   0.00025208      42.3889 
          80         1.08   0.00152329  0.000317699      42.3889 
          80      1.33333   0.00112485  0.000362764      42.3889 
          80      1.61333  0.000720265  0.000392812      42.3888 
          80         1.92  0.000322623  0.000406772      42.3888 
          80      2.25333 -3.34382e-06  0.000402678      42.3888 
          80      2.61333 -0.000224591   0.00038419      42.3887 
          80            3 -0.000347651  0.000354236      42.3887 
         100            0            0            0      41.4835 
         100     0.013333  0.000399525  -2.9587e-07      41.4835 
         100     0.053333   0.00106016 -3.63697e-06      41.4835 
         100         0.12   0.00187553 -1.13304e-05      41.4835 
         100     0.213332   0.00246892 -1.56014e-05      41.4835 
         100     0.333332   0.00266564 -4.47399e-06      41.4835 
         100         0.48   0.00260423  2.60437e-05      41.4835 
         100     0.653331   0.00243459  6.77538e-05      41.4835 
         100     0.853332    0.0021048  0.000105735      41.4835 
         100         1.08   0.00161241  0.000133401      41.4835 
         100      1.33333   0.00115322  0.000155161      41.4835 
         100      1.61333  0.000750199  0.000174613      41.4835 
         100         1.92  0.000312007  0.000186471      41.4834 
         100      2.25333 -5.63374e-05  0.000188388      41.4834 
         100      2.61333 -0.000312705  0.000183173      41.4833 
         100            3 -0.000466161  0.000171684      41.4832 
         150            0            0            0      39.2253 
         150     0.013333  0.000334838  1.20365e-07      39.2253 
         150     0.053333  0.000747758  2.12431e-06      39.2253 
         150         0.12   0.00110933  1.16175e-05      39.2253 
         150     0.213332   0.00119473  3.70499e-05      39.2253 
         150     0.333332   0.00101371  8.43858e-05      39.2253 
         150         0.48   0.00075579  0.000153046      39.2253 
         150     0.653331  0.000582822  0.000237824      39.2253 
         150     0.853332  0.000523928   0.00033207      39.2253 
         150         1.08  0.000505142  0.000428105      39.2253 
         150      1.33333  0.000441192  0.000516751      39.2253 
         150      1.61333  0.000323024  0.000590206      39.2253 
         150         1.92    0.0002103  0.000640907      39.2253 
         150      2.25333  0.000114793  0.000664643      39.2253 
         150      2.61333  4.02529e-05  0.000661466      39.2253 
         150            3 -1.25005e-05  0.000634183      39.2252 
         200            0           -0           -0       36.973 
         200     0.013333  0.000504332  1.72425e-07       36.973 
         200     0.053333    0.0013293  3.21433e-06       36.973 
         200         0.12   0.00210737  1.84135e-05       36.973 
         200     0.213332    0.0024001  6.04564e-05       36.973 
         200     0.333332   0.00219213  0.000140022       36.973 
         200         0.48   0.00180935  0.000256687       36.973 
         200     0.653331   0.00155079  0.000402072       36.973 
         200     0.853332   0.00146678  0.000563903       36.973 
         200         1.08   0.00138222  0.000726005       36.973 
         200      1.33333    0.0011528  0.000872349       36.973 
         200      1.61333  0.000837187  0.000994348       36.973 
         200         1.92  0.000514519   0.00108161       36.973 
         200      2.25333  0.000213836   0.00112582       36.973 
         200      2.61333 -3.69601e-05   0.00112609      36.9729 
         200            3  -0.00022181   0.00108537      36.9729 
         250            0  2.40734e-19  9.03386e-27      34.7262 
         250     0.013333  0.000368151 -2.55798e-07      34.7262 
         250     0.053333  0.000966226 -3.34624e-06      34.7262 
         250         0.12   0.00177549 -1.19511e-05      34.7262 
         250     0.213332   0.00249226 -2.25624e-05      34.7262 
         250     0.333332   0.00289608 -2.67702e-05      34.7262 
         250         0.48   0.00301564  -1.9057e-05      34.7262 
         250     0.653331   0.00299121 -1.31632e-06      34.7263 
         250     0.853332   0.00285738  1.84567e-05      34.7263 
         250         1.08   0.00254693  3.18569e-05      34.7262 
         250      1.33333   0.00208662  3.66306e-05      34.7262 
         250      1.61333   0.00158129  3.73166e-05      34.7262 
         250         1.92   0.00103895  3.55799e-05      34.7262 
         250      2.25333  0.000520011  3.10148e-05      34.7262 
         250      2.61333  6.42248e-05  2.49485e-05      34.7261 
         250            3 -0.000300401  1.78777e-05      34.7261 
         300            0  3.24788e-19  5.10348e-26      32.4837 
         300     0.013333  0.000138134  2.31947e-07      32.4837 
         300     0.053333  2.46466e-05  3.46305e-06      32.4837 
         300         0.12 -0.000267458  1.53562e-05      32.4837 
         300     0.213332 -0.000679966  3.95119e-05      32.4837 
         300     0.333332  -0.00103197  7.34398e-05      32.4837 
         300         0.48  -0.00119152  0.000111042      32.4837 
         300     0.653331  -0.00116224  0.000148443      32.4837 
         300     0.853332  -0.00101083  0.000184979      32.4837 
         300         1.08 -0.000820604  0.000218784      32.4837 
         300      1.33333 -0.000657674  0.000246138      32.4837 
         300      1.61333 -0.000496809  0.000265762      32.4837 
         300         1.92  -0.00029931  0.000277526      32.4837 
         300      2.25333 -9.65842e-05  0.000280163      32.4837 
         300      2.61333  9.09398e-05  0.000273206      32.4837 
         300            3  0.000250021  0.000257321      32.4837 
         350            0            0            0      30.2496 
         350     0.013333  0.000471495  1.37784e-07      30.2496 
         350     0.053333   0.00122926  2.54996e-06      30.2496 
         350         0.12   0.00196866  1.46642e-05      30.2496 
         350     0.213332   0.00227194  4.88801e-05      30.2496 
         350     0.333332   0.00207292  0.000115492      30.2496 
         350         0.48   0.00164564  0.000215552      30.2496 
         350     0.653331   0.00129282  0.000342043      30.2496 
         350     0.853332   0.00112479  0.000485398      30.2496 
         350         1.08    0.0010604  0.000635293      30.2496 
         350      1.33333  0.000950549  0.000780076      30.2496 
         350      1.61333  0.000750736  0.000909844      30.2496 
         350         1.92  0.000531116   0.00101649      30.2496 
         350      2.25333  0.000312627   0.00109174      30.2495 
         350      2.61333  0.000109059   0.00112997      30.2495 
         350            3 -6.01171e-05   0.00112879      30.2495 
         400            0           -0           -0      28.0211 
         400     0.013333   9.3917e-05 -6.30966e-07      28.0211 
         400     0.053333  0.000104855 -9.36619e-06      28.0211 
         400         0.12  0.000520371 -4.15157e-05      28.0211 
         400     0.213332   0.00135661  -0.00010826      28.0211 
         400     0.333332    0.0022522 -0.000207586      28.0211 
         400         0.48   0.00285666 -0.000328809      28.0211 
         400     0.653331   0.00306752 -0.000464451      28.0211 
         400     0.853332   0.00290986 -0.000614622      28.0211 
         400         1.08   0.00245642 -0.000778871      28.0211 
         400      1.33333    0.0019233 -0.000945965      28.0211 
         400      1.61333   0.00149624  -0.00109848      28.0211 
         400         1.92   0.00108791  -0.00122472      28.0211 
         400      2.25333  0.000677883  -0.00131629      28.0211 
         400      2.61333  0.000285262  -0.00136603       28.021 
         400            3  -5.9966e-05     -0.00137       28.021 
         450            0           -0           -0      25.7958 
         450     0.013333  0.000113957 -3.85931e-08      25.7958 
         450     0.053333  1.78765e-05 -6.51582e-07      25.7958 
         450         0.12 -6.65636e-05 -3.31828e-06      25.7958 
         450     0.213332 -9.64926e-05 -9.64767e-06      25.7958 
         450     0.333332 -9.74158e-05 -1.98016e-05      25.7958 
         450         0.48 -0.000115194 -3.24993e-05      25.7958 
         450     0.653331 -0.000169357  -4.6743e-05      25.7958 
         450     0.853332 -0.000252539  -6.2201e-05      25.7958 
         450         1.08 -0.000321626 -7.69612e-05      25.7958 
         450      1.33333  -0.00030602 -8.67623e-05      25.7958 
         450      1.61333 -0.000210911 -8.96601e-05      25.7958 
         450         1.92 -0.000114313 -8.78525e-05      25.7958 
         450      2.25333 -2.50482e-05 -8.25792e-05      25.7958 
         450      2.61333  6.15536e-05  -7.4213e-05      25.7958 
         450            3  0.000141906 -6.30989e-05      25.7958 
         500            0           -0           -0      23.5737 
         500     0.013333  2.66147e-05  1.20201e-08      23.5737 
         500     0.053333  -0.00031059  2.36461e-08      23.5737 
         500         0.12 -0.000713259 -9.35593e-07      23.5737 
         500     0.213332  -0.00100636 -5.82895e-06      23.5737 
         500     0.333332  -0.00110122 -1.85009e-05      23.5737 
         500         0.48  -0.00103681 -4.12678e-05      23.5737 
         500     0.653331 -0.000919461 -7.39447e-05      23.5737 
         500     0.853332 -0.000830314 -0.000114563      23.5737 
         500         1.08 -0.000771592 -0.000159611      23.5737 
         500      1.33333 -0.000682634 -0.000204278      23.5737 
         500      1.61333 -0.000535515 -0.000244995      23.5737 
         500         1.92 -0.000367263 -0.000280578      23.5737 
         500      2.25333 -0.000191736 -0.000309327      23.5738 
         500      2.61333 -1.57716e-05 -0.000329208      23.5738 
         500            3  0.000148384 -0.000338703      23.5738 
         550            0           -0           -0      21.3549 
         550     0.013333  0.000364876 -4.02961e-07      21.3549 
         550     0.053333   0.00102622 -5.78335e-06      21.3549 
         550         0.12   0.00210404 -2.42479e-05      21.3549 
         550     0.213332   0.00330754   -5.838e-05      21.3549 
         550     0.333332   0.00420647 -0.000100412      21.3549 
         550         0.48   0.00458333 -0.000138245      21.3549 
         550     0.653331    0.0045373 -0.000165554      21.3549 
         550     0.853332   0.00425873 -0.000184636      21.3549 
         550         1.08   0.00384535 -0.000200923      21.3549 
         550      1.33333   0.00334766 -0.000216152      21.3549 
         550      1.61333    0.0028152 -0.000228162      21.3548 
         550         1.92   0.00223778 -0.000235294      21.3548 
         550      2.25333   0.00161312 -0.000236961      21.3548 
         550      2.61333  0.000967475 -0.000232769      21.3548 
         550            3  0.000346328 -0.000222433      21.3547 
         600            0            0            0      19.1339 
         600     0.013333 -0.000213246   5.4025e-07      19.1339 
         600     0.053333  -0.00131598  7.48329e-06      19.1339 
         600         0.12  -0.00296381  2.96073e-05      19.1339 
         600     0.213332  -0.00461989   6.5805e-05      19.1339 
         600     0.333332    -0.005715  0.000102147      19.1339 
         600         0.48  -0.00609918  0.000123921      19.1339 
         600     0.653331  -0.00602773  0.000128296      19.1339 
         600     0.853332  -0.00574131  0.000125331      19.1338 
         600         1.08  -0.00522379  0.000130179      19.1338 
         600      1.33333  -0.00443106  0.000150233      19.1339 
         600      1.61333   -0.0035413  0.000178242      19.1339 
         600         1.92  -0.00268789  0.000203656      19.1339 
         600      2.25333  -0.00181714  0.000224073      19.1339 
         600      2.61333  -0.00092395  0.000238843       19.134 
         600            3 -6.68014e-05  0.000247062      19.1341 
         650            0           -0           -0      16.9214 
         650     0.013333  0.000498971 -1.33396e-07      16.9214 
         650     0.053333   0.00141483 -1.46756e-06      16.9214 
         650         0.12   0.00255259 -3.13178e-06      16.9214 
         650     0.213332   0.00344521  2.39002e-06      16.9214 
         650     0.333332   0.00381715  2.60373e-05      16.9214 
         650         0.48   0.00377386  7.34967e-05      16.9214 
         650     0.653331   0.00361238  0.000141661      16.9214 
         650     0.853332   0.00351029  0.000221539      16.9214 
         650         1.08   0.00338867  0.000300495      16.9214 
         650      1.33333   0.00304968  0.000365899      16.9214 
         650      1.61333   0.00250023  0.000414157      16.9214 
         650         1.92   0.00194661  0.000451659      16.9214 
         650      2.25333   0.00140677  0.000479631      16.9214 
         650      2.61333  0.000864599  0.000496189      16.9214 
         650            3   0.00033796  0.000499143      16.9213 
         700            0            0            0       14.708 
         700     0.013333 -3.09283e-05 -3.47234e-09       14.708 
         700     0.053333 -0.000511764 -2.84418e-07       14.708 
         700         0.12  -0.00107177 -2.80521e-06       14.708 
         700     0.213332  -0.00146493 -1.22247e-05       14.708 
         700     0.333332  -0.00158597 -3.36429e-05       14.708 
         700         0.48  -0.00151331 -6.90573e-05       14.708 
         700     0.653331  -0.00139861 -0.000116743       14.708 
         700     0.853332  -0.00133858 -0.000173224       14.708 
         700         1.08   -0.0013247 -0.000234029       14.708 
         700      1.33333  -0.00125796 -0.000292807       14.708 
         700      1.61333  -0.00106366 -0.000343602       14.708 
         700         1.92 -0.000810462 -0.000385482       14.708 
         700      2.25333 -0.000551915 -0.000418854       14.708 
         700      2.61333  -0.00029535 -0.000442217       14.708 
         700            3 -3.98735e-05 -0.000453466      14.7081 
         750            0            0            0      12.5003 
         750     0.013333  0.000339983 -1.35846e-07      12.5003 
         750     0.053333  0.000854966 -1.80622e-06      12.5003 
         750         0.12   0.00155374 -6.54544e-06      12.5003 
         750     0.213332   0.00218015  -1.2109e-05      12.5003 
         750     0.333332   0.00250444 -1.20627e-05      12.5003 
         750         0.48   0.00249959 -5.03162e-07      12.5003 
         750     0.653331   0.00231338  2.32375e-05      12.5003 
         750     0.853332   0.00208728  5.47723e-05      12.5003 
         750         1.08   0.00185468  8.82575e-05      12.5003 
         750      1.33333   0.00160066  0.000120276      12.5003 
         750      1.61333   0.00133788  0.000150566      12.5003 
         750         1.92   0.00108051   0.00017957      12.5003 
         750      2.25333  0.000817064  0.000205655      12.5003 
         750      2.61333  0.000545567  0.000227557      12.5002 
         750            3  0.000277636   0.00024411      12.5002 
         800            0           -0           -0      10.2915 
         800     0.013333 -2.07889e-05  5.32298e-07      10.2915 
         800     0.053333 -0.000652429  7.78947e-06      10.2915 
         800         0.12  -0.00184251  3.38035e-05      10.2915 
         800     0.213332  -0.00336587  8.56802e-05      10.2915 
         800     0.333332   -0.0047145  0.000157977      10.2915 
         800         0.48  -0.00549682  0.000237096      10.2915 
         800     0.653331  -0.00569685  0.000313002      10.2915 
         800     0.853332   -0.0055051  0.000385631      10.2915 
         800         1.08  -0.00504716  0.000461358      10.2915 
         800      1.33333  -0.00439359  0.000543202      10.2915 
         800      1.61333  -0.00368601   0.00062515      10.2915 
         800         1.92  -0.00300527  0.000698708      10.2915 
         800      2.25333  -0.00230342  0.000759334      10.2915 
         800      2.61333  -0.00155619  0.000804223      10.2916 
         800            3 -0.000788024  0.000830388      10.2916 
         850            0  3.53675e-20  1.16069e-26      8.08771 
         850     0.013333 -0.000197654 -3.72035e-07      8.08771 
         850     0.053333  -0.00100548  -5.8899e-06      8.08771 
         850         0.12   -0.0016961 -2.86898e-05      8.08771 
         850     0.213332  -0.00181604 -8.35438e-05      8.08771 
         850     0.333332  -0.00137246 -0.000179192      8.08771 
         850         0.48 -0.000728527 -0.000313746      8.08771 
         850     0.653331 -0.000246151 -0.000479196      8.08771 
         850     0.853332  -8.8202e-05 -0.000668496      8.08771 
         850         1.08 -0.000236893 -0.000876759      8.08771 
         850      1.33333 -0.000510543  -0.00109479      8.08771 
         850      1.61333 -0.000649582  -0.00130711      8.08771 
         850         1.92 -0.000583692  -0.00150148      8.08771 
         850      2.25333 -0.000449211  -0.00166943      8.08771 
         850      2.61333 -0.000316302  -0.00180469      8.08771 
         850            3 -0.000177865  -0.00189934      8.08771 
         900            0           -0           -0       5.8852 
         900     0.013333  0.000263109  4.51149e-09       5.8852 
         900     0.053333  0.000537468  2.26913e-07       5.8852 
         900         0.12  0.000852182  2.02078e-06       5.8852 
         900     0.213332   0.00107631   8.2916e-06       5.8852 
         900     0.333332   0.00116472  2.15937e-05       5.8852 
         900         0.48   0.00118363  4.19158e-05       5.8852 
         900     0.653331   0.00122409  6.71712e-05       5.8852 
         900     0.853332   0.00132287  9.49723e-05       5.8852 
         900         1.08   0.00143975  0.000122401       5.8852 
         900      1.33333   0.00146668  0.000144439       5.8852 
         900      1.61333   0.00132913   0.00015666       5.8852 
         900         1.92   0.00110799  0.000160004       5.8852 
         900      2.25333  0.000890645  0.000157844      5.88519 
         900      2.61333  0.000687649  0.000151803      5.88518 
         900            3  0.000478648  0.000141753      5.88517 
         950            0            0            0      3.68565 
         950     0.013333 -6.47851e-05 -2.29417e-07      3.68565 
         950     0.053333 -0.000552823 -3.76506e-06      3.68565 
         950         0.12  -0.00090152  -1.9178e-05      3.68565 
         950     0.213332 -0.000770349 -5.83095e-05      3.68565 
         950     0.333332 -0.000179219  -0.00012934      3.68565 
         950         0.48  0.000530983 -0.000230866      3.68565 
         950     0.653331   0.00101194 -0.000353797      3.68565 
         950     0.853332   0.00114424 -0.000488053      3.68565 
         950         1.08   0.00103378  -0.00062546      3.68565 
         950      1.33333  0.000889312 -0.000758281      3.68565 
         950      1.61333  0.000842628 -0.000880264      3.68565 
         950         1.92  0.000830784 -0.000990521      3.68565 
         950      2.25333  0.000781407  -0.00108706      3.68565 
         950      2.61333  0.000693762  -0.00116594      3.68565 
         950            3  0.000592753  -0.00122176      3.68565 
        1000            0  3.80476e-19  3.54561e-24      1.49281 
        1000     0.013333  0.000767311 -4.14904e-07      1.49281 
        1000     0.053333   0.00249739  -5.7298e-06      1.49281 
        1000         0.12   0.00491735 -2.17763e-05      1.49281 
        1000     0.213332   0.00723578 -4.42776e-05      1.49281 
        1000     0.333332   0.00868888 -5.62631e-05      1.49281 
        1000         0.48   0.00908026 -3.97805e-05      1.49282 
        1000     0.653331   0.00879764  1.06161e-05      1.49282 
        1000     0.853332   0.00831643   8.5657e-05      1.49282 
        1000         1.08   0.00778199  0.000167868      1.49282 
        1000      1.33333   0.00705682  0.000241007      1.49282 
        1000      1.61333   0.00610063  0.000299927      1.49282 
        1000         1.92   0.00511264  0.000351772       1.4928 
        1000      2.25333   0.00413594  0.000399986      1.49277 
        1000      2.61333   0.00313233  0.000443115      1.49273 
        1000            3   0.00208085  0.000477512      1.49266 
