Variables = x, y, u, v, p

Zone, I=800, F=POINT
          50            0     0.266987   0.00135047    0.0245491 
          50     0.000117     0.267038   0.00135082    0.0245491 
          50     0.000469     0.267192   0.00135189    0.0245491 
          50     0.001056     0.267448   0.00135366     0.024549 
          50     0.001879     0.267808   0.00135616    0.0245489 
          50     0.002936      0.26827   0.00135936    0.0245488 
          50     0.004228     0.268835   0.00136328    0.0245487 
          50     0.005755     0.269503   0.00136793    0.0245485 
          50     0.007518     0.270275    0.0013733    0.0245483 
          50     0.009515      0.27115   0.00137939    0.0245481 
          50     0.011746     0.272129   0.00138622    0.0245478 
          50     0.014214     0.273213   0.00139379    0.0245476 
          50     0.016915     0.274401   0.00140209    0.0245473 
          50     0.019853     0.275694   0.00141116    0.0245469 
          50     0.023023     0.277091   0.00142097    0.0245465 
          50     0.026431     0.278596   0.00143155    0.0245461 
          50     0.030075     0.280207   0.00144291    0.0245457 
          50      0.03395     0.281923   0.00145503    0.0245452 
          50     0.038063     0.283747   0.00146796    0.0245447 
          50     0.042408     0.285678   0.00148167    0.0245442 
          50     0.046991     0.287718   0.00149619    0.0245436 
          50     0.051805     0.289865   0.00151152     0.024543 
          50     0.056859     0.292123   0.00152769    0.0245423 
          50     0.062143     0.294489   0.00154468    0.0245417 
          50     0.067666     0.296967   0.00156254    0.0245409 
          50     0.073425     0.299556   0.00158125    0.0245401 
          50     0.079413     0.302253   0.00160081    0.0245393 
          50     0.085642     0.305065   0.00162128    0.0245384 
          50       0.0921     0.307986   0.00164261    0.0245375 
          50     0.098799     0.311023   0.00166487    0.0245365 
          50     0.105727     0.314171   0.00168802    0.0245354 
          50     0.112896     0.317435   0.00171212    0.0245343 
          50       0.1203     0.320813   0.00173716    0.0245332 
          50     0.127932     0.324302   0.00176313     0.024532 
          50     0.135806      0.32791   0.00179008    0.0245307 
          50     0.143909      0.33163   0.00181799    0.0245293 
          50     0.152253     0.335468    0.0018469    0.0245279 
          50     0.160825      0.33942   0.00187678    0.0245264 
          50     0.169639      0.34349   0.00190768    0.0245248 
          50     0.178688     0.347677    0.0019396    0.0245231 
          50     0.187965     0.351976   0.00197252    0.0245213 
          50     0.197484     0.356396   0.00200651    0.0245195 
          50      0.20723     0.360928   0.00204151    0.0245175 
          50      0.21722      0.36558   0.00207761    0.0245155 
          50     0.227436     0.370344   0.00211477    0.0245133 
          50     0.237895     0.375227   0.00215305    0.0245111 
          50     0.248581     0.380223   0.00219239    0.0245087 
          50      0.25951     0.385336   0.00223288    0.0245062 
          50     0.270675     0.390565   0.00227446    0.0245036 
          50     0.282065     0.395903   0.00231711    0.0245009 
          50       0.2937     0.401358    0.0023609     0.024498 
          50      0.30556     0.406921   0.00240575     0.024495 
          50     0.317665       0.4126   0.00245174    0.0244918 
          50     0.329995     0.418384   0.00249881    0.0244884 
          50     0.342569     0.424282   0.00254701    0.0244849 
          50     0.355379     0.430287   0.00259633    0.0244813 
          50     0.368414     0.436394    0.0026467    0.0244775 
          50     0.381693      0.44261   0.00269821    0.0244734 
          50     0.395198     0.448924   0.00275078    0.0244692 
          50     0.408948     0.455344   0.00280448    0.0244648 
          50     0.422921     0.461857   0.00285921    0.0244602 
          50     0.437141     0.468473   0.00291506    0.0244554 
          50     0.451585     0.475178   0.00297192    0.0244504 
          50     0.466275     0.481981   0.00302988    0.0244451 
          50       0.4812     0.488874   0.00308888    0.0244396 
          50     0.496348     0.495848   0.00314884    0.0244338 
          50     0.511744     0.502912   0.00320987    0.0244278 
          50     0.527361     0.510051   0.00327182    0.0244215 
          50     0.543227     0.517275   0.00333479    0.0244149 
          50     0.559314     0.524568   0.00339864    0.0244081 
          50      0.57565     0.531938   0.00346348    0.0244009 
          50      0.59222     0.539376    0.0035292    0.0243935 
          50     0.609012     0.546872   0.00359574    0.0243857 
          50     0.626053     0.554436   0.00366317    0.0243776 
          50     0.643315      0.56205   0.00373135    0.0243691 
          50     0.660826     0.569722   0.00380037    0.0243603 
          50     0.678557     0.577437   0.00387008    0.0243512 
          50     0.696538     0.585202   0.00394056    0.0243416 
          50     0.714754     0.593006   0.00401171    0.0243317 
          50      0.73319      0.60084   0.00408345    0.0243213 
          50     0.751876      0.60871   0.00415585    0.0243106 
          50     0.770782     0.616599   0.00422877    0.0242994 
          50     0.789937     0.624515   0.00430227    0.0242878 
          50     0.809313     0.632441    0.0043762    0.0242758 
          50     0.828939     0.640383   0.00445064    0.0242633 
          50     0.848784     0.648325   0.00452536    0.0242504 
          50      0.86888     0.656273    0.0046005    0.0242369 
          50     0.889212     0.664216   0.00467596     0.024223 
          50     0.909761     0.672142   0.00475162    0.0242085 
          50     0.930563     0.680059   0.00482755    0.0241936 
          50     0.951582     0.687947   0.00490358    0.0241781 
          50     0.972854     0.695815   0.00497977    0.0241621 
          50     0.994343     0.703645   0.00505595    0.0241456 
          50      1.01608     0.711442   0.00513218    0.0241285 
          50      1.03806     0.719196   0.00520836    0.0241108 
          50      1.06025     0.726894   0.00528436    0.0240926 
          50       1.0827     0.734544   0.00536026    0.0240737 
          50      1.10536     0.742127    0.0054359    0.0240543 
          50      1.12828      0.74965   0.00551132    0.0240343 
          50      1.15142     0.757097   0.00558637    0.0240137 
          50       1.1748     0.764472    0.0056611    0.0239924 
          50      1.19842     0.771766   0.00573541    0.0239706 
          50      1.22226     0.778967   0.00580918    0.0239481 
          50      1.24635     0.786081   0.00588247    0.0239249 
          50      1.27066     0.793092    0.0059551    0.0239012 
          50      1.29522     0.800007    0.0060271    0.0238767 
          50         1.32      0.80681   0.00609827    0.0238516 
          50      1.34503     0.813507   0.00616873    0.0238258 
          50      1.37028     0.820083   0.00623854    0.0237994 
          50      1.39578     0.826544   0.00630754    0.0237723 
          50      1.42152      0.83288   0.00637562    0.0237446 
          50      1.44747     0.839083   0.00644269    0.0237161 
          50      1.47368      0.84516   0.00650881     0.023687 
          50       1.5001     0.851096   0.00657384    0.0236573 
          50      1.52677     0.856897   0.00663783    0.0236268 
          50      1.55367     0.862553   0.00670066    0.0235957 
          50      1.58081     0.868069   0.00676238    0.0235639 
          50       1.6082     0.873437   0.00682291    0.0235315 
          50      1.63579     0.878653   0.00688217    0.0234984 
          50      1.66364     0.883721   0.00694022    0.0234646 
          50      1.69171     0.888633   0.00699695    0.0234302 
          50      1.72003     0.893394   0.00705241    0.0233951 
          50      1.74857     0.897997    0.0071065    0.0233594 
          50      1.77736     0.902447   0.00715928    0.0233231 
          50      1.80636     0.906738   0.00721064    0.0232861 
          50      1.83563     0.910876   0.00726064    0.0232485 
          50      1.86512     0.914858   0.00730923    0.0232102 
          50      1.89484     0.918681   0.00735637    0.0231714 
          50       1.9248     0.922352   0.00740211    0.0231319 
          50      1.95498     0.925866   0.00744639    0.0230919 
          50      1.98542     0.929231   0.00748926    0.0230513 
          50      2.01607     0.932442   0.00753066    0.0230101 
          50      2.04698     0.935507   0.00757067    0.0229683 
          50      2.07812     0.938426   0.00760926     0.022926 
          50      2.10947     0.941198   0.00764642    0.0228831 
          50      2.14109      0.94383   0.00768221    0.0228397 
          50      2.17291     0.946322    0.0077166    0.0227958 
          50      2.20499     0.948681   0.00774966    0.0227513 
          50      2.23728     0.950906   0.00778138    0.0227063 
          50      2.26984     0.953004    0.0078118    0.0226609 
          50      2.30263     0.954978   0.00784095    0.0226149 
          50      2.33562     0.956829   0.00786882    0.0225685 
          50      2.36888     0.958566   0.00789547    0.0225215 
          50      2.40235      0.96019   0.00792089    0.0224742 
          50      2.43608     0.961707   0.00794514    0.0224264 
          50      2.47002      0.96312    0.0079682    0.0223782 
          50      2.50421     0.964436   0.00799013    0.0223296 
          50      2.53862     0.965658   0.00801091    0.0222806 
          50      2.57329     0.966791   0.00803065    0.0222312 
          50      2.60819     0.967841   0.00804952    0.0221812 
          50       2.6433      0.96881   0.00806744    0.0221308 
          50      2.67868     0.969705   0.00808447    0.0220801 
          50      2.71426      0.97053    0.0081006     0.022029 
          50       2.7501     0.971289   0.00811586    0.0219776 
          50      2.78615     0.971986   0.00813026    0.0219259 
          50      2.82247     0.972627   0.00814405    0.0218739 
          50      2.85902     0.973214   0.00815719    0.0218217 
          50      2.89577     0.973752   0.00816961    0.0217691 
          50      2.93279     0.974244   0.00818136    0.0217162 
          50      2.97002     0.974694   0.00819246     0.021663 
          50       3.0075     0.975106   0.00820296    0.0216094 
          50       3.0452     0.975483   0.00821288    0.0215556 
          50      3.08316     0.975827   0.00822228    0.0215014 
          50      3.12135     0.976143   0.00823116    0.0214469 
          50      3.15975     0.976431   0.00823958    0.0213921 
          50      3.19842     0.976695    0.0082477    0.0213371 
          50      3.23728     0.976938   0.00825544    0.0212819 
          50      3.27642      0.97716   0.00826281    0.0212263 
          50      3.31576     0.977364   0.00826981    0.0211705 
          50      3.35536     0.977552   0.00827645    0.0211144 
          50      3.39517     0.977725   0.00828273    0.0210581 
          50      3.43525     0.977885   0.00828867    0.0210015 
          50      3.47555     0.978032   0.00829427    0.0209447 
          50      3.51607     0.978168   0.00829955    0.0208876 
          50      3.55685     0.978294   0.00830451    0.0208303 
          50      3.59783     0.978411   0.00830916    0.0207728 
          50      3.63908      0.97852   0.00831352    0.0207151 
          50      3.68053     0.978621    0.0083176    0.0206571 
          50      3.72225     0.978716   0.00832141    0.0205989 
          50      3.76421     0.978805   0.00832496    0.0205405 
          50      3.80636     0.978889   0.00832825     0.020482 
          50      3.84879     0.978968   0.00833131    0.0204232 
          50      3.89142     0.979043   0.00833412    0.0203642 
          50      3.93431     0.979116   0.00833671    0.0203051 
          50      3.97741     0.979185   0.00833906    0.0202457 
          50      4.02077     0.979253    0.0083412    0.0201862 
          50      4.06434     0.979319   0.00834311    0.0201265 
          50      4.10817     0.979383   0.00834481    0.0200665 
          50      4.15224     0.979448   0.00834628    0.0200064 
          50      4.19651     0.979511   0.00834752    0.0199462 
          50      4.24106     0.979575   0.00834853    0.0198857 
          50       4.2858     0.979638   0.00834931    0.0198252 
          50      4.33081     0.979702   0.00834986    0.0197644 
          50      4.37602     0.979767   0.00835016    0.0197035 
          50       4.4215     0.979832   0.00835023    0.0196425 
          50      4.46721     0.979897   0.00835007    0.0195813 
          50      4.51313     0.979962   0.00834969      0.01952 
          50      4.55931     0.980028   0.00834911    0.0194585 
          50       4.6057     0.980094   0.00834836    0.0193969 
          50      4.65235      0.98016   0.00834749    0.0193351 
          50      4.69921     0.980226   0.00834625    0.0192732 
          50      4.74633     0.980291   0.00834474    0.0192112 
          50      4.79369     0.980356    0.0083431    0.0191491 
          50      4.84125     0.980421   0.00834126    0.0190869 
          50      4.88908     0.980487   0.00833919    0.0190245 
          50      4.93711     0.980552   0.00833686    0.0189621 
          50      4.98541     0.980618   0.00833426    0.0188995 
          50      5.03391     0.980683    0.0083314    0.0188368 
          50      5.08268     0.980747   0.00832828    0.0187741 
          50      5.13165     0.980812   0.00832492    0.0187113 
          50      5.18089     0.980876   0.00832132    0.0186483 
          50      5.23037     0.980941    0.0083175    0.0185853 
          50      5.28004     0.981005   0.00831346    0.0185223 
          50      5.32999     0.981069   0.00830921    0.0184592 
          50      5.38013     0.981133   0.00830475     0.018396 
          50      5.43055     0.981197   0.00830007    0.0183328 
          50      5.48116     0.981261   0.00829518    0.0182695 
          50      5.53204     0.981325   0.00829007    0.0182062 
          50      5.58317     0.981389   0.00828472    0.0181427 
          50      5.63448     0.981453   0.00827914    0.0180793 
          50      5.68607     0.981517   0.00827331    0.0180158 
          50      5.73786     0.981581   0.00826723    0.0179523 
          50      5.78992     0.981645   0.00826089    0.0178888 
          50      5.84218      0.98171    0.0082543    0.0178252 
          50      5.89471     0.981774   0.00824745    0.0177615 
          50      5.94748     0.981839   0.00824034    0.0176978 
          50      6.00044     0.981905     0.008233    0.0176342 
          50      6.05367      0.98197   0.00822541    0.0175704 
          50       6.1071     0.982036   0.00821759    0.0175067 
          50      6.16081     0.982102   0.00820955    0.0174429 
          50      6.21471     0.982168   0.00820132    0.0173791 
          50      6.26889     0.982235   0.00819287    0.0173153 
          50      6.32326     0.982301    0.0081842    0.0172516 
          50       6.3779     0.982368   0.00817533    0.0171878 
          50      6.43279     0.982434   0.00816626    0.0171241 
          50      6.48786     0.982501   0.00815698    0.0170605 
          50      6.54321     0.982567   0.00814744    0.0169968 
          50      6.59876     0.982632   0.00813763    0.0169332 
          50      6.65458     0.982697   0.00812751    0.0168697 
          50      6.71059     0.982762   0.00811713    0.0168062 
          50      6.76689     0.982826   0.00810658    0.0167427 
          50      6.82341     0.982891   0.00809609    0.0166793 
          50      6.88013     0.982958    0.0080861     0.016616 
          50      6.93713     0.983021   0.00807468    0.0165527 
          50      6.99432     0.983082   0.00806283    0.0164894 
          50      7.05178     0.983146   0.00805125    0.0164261 
          50      7.10944      0.98321   0.00803967    0.0163628 
          50      7.16738     0.983274    0.0080279    0.0162995 
          50      7.22551     0.983339   0.00801584    0.0162363 
          50      7.28391     0.983404   0.00800344    0.0161732 
          50      7.34256     0.983469   0.00799071    0.0161101 
          50      7.40139     0.983533   0.00797812    0.0160474 
          50       7.4605     0.983598   0.00796509    0.0159846 
          50       7.5198     0.983662   0.00795172     0.015922 
          50      7.57939     0.983727   0.00793812    0.0158593 
          50      7.63916     0.983791   0.00792436    0.0157968 
          50      7.69921     0.983855   0.00791048    0.0157343 
          50       7.7595     0.983919    0.0078965    0.0156719 
          50      7.81998     0.983984   0.00788243    0.0156097 
          50      7.88073     0.984047   0.00786822    0.0155476 
          50      7.94168     0.984111   0.00785387    0.0154856 
          50      8.00291     0.984175   0.00783931    0.0154237 
          50      8.06432     0.984238   0.00782454     0.015362 
          50      8.12602     0.984302   0.00780951    0.0153004 
          50      8.18796     0.984365   0.00779422    0.0152388 
          50      8.25008     0.984428   0.00777868    0.0151774 
          50      8.31248     0.984491   0.00776289    0.0151161 
          50      8.37507     0.984553   0.00774688     0.015055 
          50      8.43794     0.984616   0.00773068    0.0149939 
          50        8.501     0.984678   0.00771434    0.0149329 
          50      8.56434      0.98474   0.00769788     0.014872 
          50      8.62787     0.984801   0.00768135    0.0148113 
          50      8.69169     0.984863   0.00766475    0.0147507 
          50      8.75574     0.984924   0.00764808    0.0146902 
          50      8.81997     0.984986   0.00763134    0.0146299 
          50      8.88449     0.985047   0.00761445    0.0145697 
          50      8.94919     0.985109   0.00759737    0.0145098 
          50      9.01418      0.98517      0.00758    0.0144499 
          50      9.07935     0.985232   0.00756233    0.0143903 
          50      9.14481     0.985294   0.00754433    0.0143308 
          50      9.21051     0.985355    0.0075261    0.0142715 
          50      9.27639     0.985416   0.00750793    0.0142124 
          50      9.34255     0.985476    0.0074903    0.0141532 
          50       9.4089     0.985534   0.00747373    0.0140942 
          50      9.47553     0.985594   0.00745361    0.0140356 
          50      9.54235     0.985655   0.00743468    0.0139771 
          50      9.60945     0.985716   0.00741622    0.0139187 
          50      9.67674     0.985776   0.00739785    0.0138605 
          50      9.74432     0.985835   0.00737928    0.0138024 
          50      9.81212     0.985894   0.00736043    0.0137444 
          50      9.88012     0.985952   0.00734129    0.0136867 
          50       9.9484      0.98601   0.00732186    0.0136292 
          50      10.0169     0.986068   0.00730226    0.0135719 
          50      10.0856     0.986126    0.0072825    0.0135148 
          50      10.1545     0.986184    0.0072627    0.0134578 
          50      10.2238     0.986243   0.00724287    0.0134011 
          50      10.2932     0.986302   0.00722305    0.0133445 
          50      10.3628     0.986361   0.00720326    0.0132882 
          50      10.4328      0.98642   0.00718344     0.013232 
          50      10.5029     0.986479   0.00716361     0.013176 
          50      10.5733     0.986538   0.00714368    0.0131201 
          50      10.6438     0.986596   0.00712364    0.0130645 
          50      10.7147     0.986653    0.0071034     0.013009 
          50      10.7858     0.986709   0.00708295    0.0129537 
          50      10.8571     0.986765   0.00706229    0.0128986 
          50      10.9287      0.98682   0.00704139    0.0128436 
          50      11.0004     0.986874   0.00702032    0.0127889 
          50      11.0725     0.986928   0.00699911    0.0127344 
          50      11.1447     0.986982   0.00697787    0.0126801 
          50      11.2172     0.987036    0.0069567     0.012626 
          50      11.2899     0.987092   0.00693575    0.0125723 
          50      11.3628     0.987151   0.00691517    0.0125189 
          50      11.4361     0.987207   0.00689407    0.0124652 
          50      11.5095     0.987262   0.00687289    0.0124119 
          50      11.5831     0.987316   0.00685174    0.0123587 
          50       11.657      0.98737   0.00683058    0.0123058 
          50      11.7312     0.987424   0.00680934    0.0122532 
          50      11.8055     0.987478   0.00678801    0.0122007 
          50      11.8801     0.987531   0.00676653    0.0121485 
          50       11.955     0.987584    0.0067449    0.0120965 
          50        12.03     0.987638   0.00672315    0.0120447 
          50      12.1053     0.987691   0.00670128    0.0119931 
          50      12.1809     0.987744    0.0066794    0.0119417 
          50      12.2567     0.987797    0.0066576    0.0118905 
          50      12.3326     0.987849    0.0066361    0.0118395 
          50      12.4089       0.9879   0.00661514    0.0117887 
          50      12.4854     0.987951   0.00659229     0.011738 
          50      12.5621     0.988003    0.0065704    0.0116876 
          50      12.6391     0.988055   0.00654881    0.0116373 
          50      12.7162     0.988106   0.00652714    0.0115873 
          50      12.7937     0.988158   0.00650524    0.0115375 
          50      12.8713     0.988209   0.00648317    0.0114879 
          50      12.9492     0.988261   0.00646098    0.0114385 
          50      13.0273     0.988312   0.00643879    0.0113893 
          50      13.1057     0.988362   0.00641664    0.0113403 
          50      13.1843     0.988413   0.00639458    0.0112915 
          50      13.2631     0.988463   0.00637262     0.011243 
          50      13.3422     0.988513   0.00635068    0.0111946 
          50      13.4215     0.988563   0.00632874    0.0111465 
          50       13.501     0.988613   0.00630672    0.0110985 
          50      13.5807     0.988662   0.00628461    0.0110508 
          50      13.6608     0.988711   0.00626238    0.0110033 
          50       13.741      0.98876   0.00624005    0.0109559 
          50      13.8215     0.988808   0.00621769    0.0109089 
          50      13.9022     0.988856   0.00619533     0.010862 
          50      13.9831     0.988904   0.00617305    0.0108153 
          50      14.0643     0.988952   0.00615088    0.0107689 
          50      14.1457     0.988999   0.00612885    0.0107227 
          50      14.2274     0.989046    0.0061069    0.0106767 
          50      14.3092     0.989093   0.00608497    0.0106309 
          50      14.3914      0.98914   0.00606292    0.0105853 
          50      14.4738     0.989186   0.00604069    0.0105399 
          50      14.5563     0.989231   0.00601833    0.0104947 
          50      14.6392     0.989275   0.00599614    0.0104496 
          50      14.7222     0.989316   0.00597456    0.0104047 
          50      14.8055     0.989365   0.00595157    0.0103606 
          50       14.889     0.989413   0.00592973    0.0103166 
          50      14.9728     0.989459   0.00590824    0.0102726 
          50      15.0568     0.989505   0.00588669    0.0102287 
          50       15.141     0.989551   0.00586492     0.010185 
          50      15.2255     0.989597   0.00584286    0.0101414 
          50      15.3102     0.989642   0.00582062     0.010098 
          50      15.3952     0.989686   0.00579826    0.0100547 
          50      15.4803     0.989731   0.00577594    0.0100117 
          50      15.5657     0.989775   0.00575372   0.00996893 
          50      15.6514     0.989818   0.00573167   0.00992639 
          50      15.7372     0.989861   0.00570985   0.00988414 
          50      15.8234     0.989903   0.00568821   0.00984209 
          50      15.9097     0.989945   0.00566676    0.0098003 
          50      15.9963     0.989986    0.0056454   0.00975869 
          50      16.0831     0.990028   0.00562411    0.0097173 
          50      16.1702     0.990069   0.00560279   0.00967604 
          50      16.2574     0.990111   0.00558141   0.00963497 
          50       16.345     0.990152   0.00555992     0.009594 
          50      16.4328     0.990194   0.00553831   0.00955316 
          50      16.5207     0.990236   0.00551663   0.00951247 
          50       16.609     0.990278   0.00549488   0.00947187 
          50      16.6974      0.99032   0.00547316   0.00943145 
          50      16.7861     0.990363   0.00545152   0.00939116 
          50       16.875     0.990405   0.00543007   0.00935111 
          50      16.9642     0.990447   0.00540883   0.00931126 
          50      17.0537     0.990489   0.00538787   0.00927169 
          50      17.1433     0.990531    0.0053672   0.00923247 
          50      17.2332     0.990572   0.00534673   0.00919357 
          50      17.3232     0.990612   0.00532638   0.00915506 
          50      17.4136     0.990651   0.00530598   0.00911687 
          50      17.5041      0.99069   0.00528535   0.00907902 
          50       17.595     0.990729    0.0052643   0.00904132 
          50      17.6861     0.990767   0.00524269   0.00900362 
          50      17.7773     0.990806   0.00522059   0.00896567 
          50      17.8689     0.990847   0.00519823   0.00892701 
          50      17.9606     0.990888   0.00517636    0.0088879 
          50      18.0526     0.990925   0.00515642    0.0088527 
          50      18.1448     0.990952   0.00513723   0.00881717 
          50      18.2373     0.990975   0.00511698    0.0087808 
          50      18.3299     0.991008   0.00509814   0.00874445 
          50      18.4229     0.991047   0.00507953   0.00870806 
          50      18.5161     0.991094   0.00505856   0.00867146 
          50      18.6094      0.99114   0.00503751   0.00863502 
          50      18.7031     0.991185    0.0050165   0.00859874 
          50      18.7969     0.991227   0.00499566   0.00856269 
          50       18.891     0.991267     0.004975   0.00852683 
          50      18.9853     0.991304   0.00495458   0.00849123 
          50      19.0799     0.991339   0.00493433   0.00845583 
          50      19.1748     0.991373   0.00491427   0.00842066 
          50      19.2698     0.991406   0.00489438   0.00838574 
          50      19.3651     0.991438   0.00487461   0.00835101 
          50      19.4606     0.991471   0.00485496    0.0083165 
          50      19.5563     0.991504   0.00483539   0.00828217 
          50      19.6523     0.991538   0.00481592   0.00824806 
          50      19.7485     0.991573   0.00479651    0.0082141 
          50      19.8449     0.991608   0.00477719   0.00818035 
          50      19.9417     0.991644   0.00475793   0.00814674 
          50      20.0386      0.99168   0.00473874   0.00811331 
          50      20.1357     0.991717   0.00471966   0.00808008 
          50      20.2331     0.991753   0.00470063     0.008047 
          50      20.3307     0.991789    0.0046817   0.00801412 
          50      20.4286     0.991825   0.00466282   0.00798139 
          50      20.5267      0.99186   0.00464401   0.00794886 
          50       20.625     0.991894   0.00462523   0.00791649 
          50      20.7236     0.991928   0.00460648   0.00788429 
          50      20.8224     0.991961   0.00458776    0.0078523 
          50      20.9215     0.991993   0.00456901   0.00782045 
          50      21.0207     0.992025   0.00455027    0.0077888 
          50      21.1202     0.992057   0.00453151   0.00775728 
          50      21.2199     0.992089   0.00451275   0.00772593 
          50      21.3199      0.99212   0.00449399    0.0076947 
          50      21.4202     0.992152   0.00447527   0.00766359 
          50      21.5206     0.992184   0.00445664   0.00763263 
          50      21.6213     0.992215   0.00443814   0.00760174 
          50      21.7222     0.992247   0.00441984   0.00757098 
          50      21.8234     0.992279   0.00440176   0.00754029 
          50      21.9247      0.99231   0.00438396   0.00750974 
          50      22.0264     0.992341   0.00436639   0.00747929 
          50      22.1282     0.992373   0.00434902   0.00744903 
          50      22.2303     0.992406   0.00433165   0.00741897 
          50      22.3327     0.992443     0.004314   0.00738922 
          50      22.4352     0.992469   0.00429644   0.00735944 
          50       22.538     0.992494   0.00427912   0.00732973 
          50       22.641     0.992523   0.00426178   0.00730036 
          50      22.7443     0.992554   0.00424445   0.00727122 
          50      22.8477     0.992585   0.00422718   0.00724232 
          50      22.9515     0.992615   0.00420996   0.00721361 
          50      23.0555     0.992645   0.00419279   0.00718507 
          50      23.1597     0.992674    0.0041757   0.00715673 
          50      23.2642     0.992702   0.00415863   0.00712853 
          50      23.3688      0.99273    0.0041416   0.00710051 
          50      23.4737     0.992757   0.00412459   0.00707264 
          50      23.5788     0.992785   0.00410762   0.00704495 
          50      23.6843     0.992813   0.00409065   0.00701738 
          50      23.7899     0.992841   0.00407374   0.00698995 
          50      23.8957      0.99287   0.00405691   0.00696265 
          50      24.0018       0.9929    0.0040402   0.00693539 