Variables = x, y, u, v, p

Zone, I=416, F=POINT
         -50            0            0            0     -37.4882 
         -50     0.013333 -8.59415e-05 -2.38257e-08     -37.4882 
         -50     0.053333 -7.82793e-05 -7.50181e-08     -37.4882 
         -50         0.12 -7.64565e-05 -1.60492e-07     -37.4882 
         -50     0.213332  -7.6044e-05   -2.827e-07     -37.4882 
         -50     0.333332 -7.59969e-05 -4.43479e-07     -37.4881 
         -50         0.48   -7.573e-05 -6.81552e-07     -37.4881 
         -50     0.653331 -7.55122e-05 -8.21494e-07     -37.4879 
         -50     0.853332  -7.5375e-05 -1.08477e-06     -37.4878 
         -50         1.08 -7.52947e-05 -1.42334e-06     -37.4875 
         -50      1.33333 -7.53211e-05 -1.69055e-06     -37.4871 
         -50      1.61333 -7.56486e-05   -2.089e-06     -37.4866 
         -50         1.92 -7.62931e-05 -2.45913e-06      -37.486 
         -50      2.25333  -7.6425e-05 -2.88897e-06     -37.4852 
         -50      2.61333 -7.60162e-05 -3.30338e-06     -37.4841 
         -50            3 -7.55903e-05 -3.61924e-06     -37.4829 
         -25            0           -0           -0     -36.0231 
         -25     0.013333 -6.29358e-05 -9.07133e-09     -36.0231 
         -25     0.053333 -5.75523e-05 -2.88573e-08     -36.0231 
         -25         0.12 -5.66765e-05 -6.14706e-08     -36.0231 
         -25     0.213332 -5.71474e-05 -1.03705e-07     -36.0231 
         -25     0.333332 -5.81522e-05  -1.5176e-07     -36.0231 
         -25         0.48 -5.90602e-05 -2.08825e-07     -36.0231 
         -25     0.653331 -5.97349e-05 -2.73098e-07      -36.023 
         -25     0.853332 -5.99191e-05 -3.40696e-07      -36.023 
         -25         1.08 -5.95657e-05 -4.04558e-07     -36.0229 
         -25      1.33333 -5.88795e-05 -4.91486e-07     -36.0227 
         -25      1.61333 -5.79923e-05 -5.93322e-07     -36.0225 
         -25         1.92 -5.69681e-05 -6.97841e-07     -36.0223 
         -25      2.25333 -5.64056e-05 -8.60115e-07      -36.022 
         -25      2.61333 -5.61085e-05 -9.90206e-07     -36.0216 
         -25            3  -5.5604e-05 -9.75152e-07     -36.0211 
           0            0 -1.60616e-19  1.94922e-19     -34.8283 
           0     0.013333 -0.000138418  8.54363e-05     -34.8294 
           0     0.053333 -8.81855e-05  4.34794e-05     -34.8313 
           0         0.12 -7.07643e-05  2.93351e-05     -34.8334 
           0     0.213332  -6.3826e-05  2.22655e-05     -34.8355 
           0     0.333332 -6.09912e-05  1.80815e-05     -34.8377 
           0         0.48 -5.86758e-05  1.50964e-05     -34.8399 
           0     0.653331 -5.64902e-05  1.29815e-05     -34.8419 
           0     0.853332 -5.43309e-05  1.14507e-05     -34.8439 
           0         1.08 -5.26256e-05  1.02925e-05     -34.8458 
           0      1.33333 -5.13723e-05  9.35355e-06     -34.8476 
           0      1.61333  -5.0197e-05  8.53712e-06     -34.8493 
           0         1.92 -4.90749e-05  7.75561e-06     -34.8509 
           0      2.25333 -4.81882e-05  6.98311e-06     -34.8523 
           0      2.61333 -4.73197e-05  6.25223e-06     -34.8537 
           0            3 -4.69927e-05  5.26017e-06     -34.8549 
          20            0 -6.09365e-05  1.08147e-05     -34.0775 
          20     0.013333 -5.99638e-05  1.07841e-05     -34.0775 
          20     0.053333 -5.72256e-05  1.06514e-05     -34.0775 
          20         0.12 -5.33776e-05  1.02952e-05     -34.0775 
          20     0.213332 -4.97214e-05  9.53463e-06     -34.0775 
          20     0.333332 -4.76221e-05  8.18619e-06     -34.0774 
          20         0.48 -4.66508e-05  6.23023e-06     -34.0774 
          20     0.653331 -4.48353e-05  3.85304e-06     -34.0774 
          20     0.853332 -4.10909e-05  1.31274e-06     -34.0773 
          20         1.08 -3.62332e-05 -1.19148e-06     -34.0773 
          20      1.33333 -3.16394e-05 -3.53288e-06     -34.0772 
          20      1.61333 -2.76547e-05 -5.52663e-06     -34.0771 
          20         1.92 -2.52226e-05 -7.05517e-06      -34.077 
          20      2.25333 -2.48542e-05 -8.08006e-06     -34.0769 
          20      2.61333  -2.6248e-05 -8.64181e-06     -34.0768 
          20            3 -2.86544e-05 -8.99203e-06     -34.0766 
          40            0 -0.000227177 -3.14169e-05     -33.3529 
          40     0.013333 -0.000218229 -3.22805e-05     -33.3529 
          40     0.053333 -0.000191898 -3.49952e-05     -33.3529 
          40         0.12 -0.000150771 -3.99794e-05     -33.3528 
          40     0.213332 -0.000102211 -4.80388e-05     -33.3528 
          40     0.333332 -5.97544e-05 -6.02704e-05     -33.3527 
          40         0.48 -3.61129e-05 -7.73296e-05     -33.3525 
          40     0.653331 -2.83092e-05 -9.81485e-05     -33.3524 
          40     0.853332 -1.90084e-05 -0.000119712     -33.3521 
          40         1.08  2.50116e-07 -0.000138682     -33.3519 
          40      1.33333  2.41516e-05 -0.000152568     -33.3515 
          40      1.61333  4.56581e-05 -0.000159734     -33.3511 
          40         1.92   6.0146e-05 -0.000159577     -33.3507 
          40      2.25333  6.54733e-05 -0.000152749     -33.3502 
          40      2.61333  6.23035e-05 -0.000141137     -33.3496 
          40            3  5.25187e-05 -0.000127168     -33.3489 
          60            0           -0           -0     -32.6204 
          60     0.013333 -7.92797e-05 -4.99127e-08     -32.6204 
          60     0.053333 -0.000149525 -7.83198e-07     -32.6204 
          60         0.12 -0.000200829 -3.80428e-06     -32.6204 
          60     0.213332 -0.000200282 -1.07807e-05     -32.6204 
          60     0.333332 -0.000171823 -2.23182e-05     -32.6204 
          60         0.48 -0.000161331 -3.83175e-05     -32.6204 
          60     0.653331 -0.000188606 -5.83649e-05     -32.6204 
          60     0.853332 -0.000215327 -8.02881e-05     -32.6204 
          60         1.08 -0.000210465 -0.000101563     -32.6204 
          60      1.33333  -0.00017899 -0.000120121     -32.6203 
          60      1.61333 -0.000129807 -0.000133332     -32.6203 
          60         1.92   -8.314e-05  -0.00013925     -32.6202 
          60      2.25333 -4.14019e-05 -0.000137653     -32.6202 
          60      2.61333 -1.12339e-05 -0.000130128     -32.6201 
          60            3  1.89242e-06  -0.00011867       -32.62 
          80            0  -1.1269e-19 -8.49497e-25     -31.9159 
          80     0.013333 -5.95286e-05 -1.17032e-08     -31.9159 
          80     0.053333 -9.35434e-05 -2.04399e-07     -31.9159 
          80         0.12 -0.000124834 -1.14143e-06     -31.9159 
          80     0.213332  -0.00013212 -3.63354e-06     -31.9159 
          80     0.333332 -0.000119985 -8.11905e-06     -31.9159 
          80         0.48 -0.000106992 -1.43466e-05     -31.9159 
          80     0.653331 -0.000105966 -2.16869e-05     -31.9159 
          80     0.853332 -0.000114859 -2.93387e-05     -31.9159 
          80         1.08 -0.000119133 -3.63238e-05     -31.9159 
          80      1.33333 -0.000107576 -4.16176e-05     -31.9159 
          80      1.61333 -8.43178e-05 -4.50098e-05     -31.9159 
          80         1.92 -5.79369e-05 -4.61805e-05     -31.9158 
          80      2.25333 -3.68963e-05 -4.50804e-05     -31.9158 
          80      2.61333 -2.32961e-05 -4.22237e-05     -31.9158 
          80            3 -1.43102e-05 -3.82417e-05     -31.9157 
         100            0           -0           -0     -31.2286 
         100     0.013333 -6.42501e-05  -1.5091e-08     -31.2286 
         100     0.053333 -0.000110725 -2.77859e-07     -31.2286 
         100         0.12 -0.000151129 -1.58798e-06     -31.2286 
         100     0.213332 -0.000155834 -5.13235e-06     -31.2286 
         100     0.333332 -0.000130867 -1.15938e-05     -31.2286 
         100         0.48  -0.00010367 -2.06641e-05     -31.2286 
         100     0.653331 -9.23602e-05 -3.13444e-05     -31.2286 
         100     0.853332 -8.76217e-05 -4.20172e-05     -31.2286 
         100         1.08  -6.9805e-05 -5.10621e-05     -31.2286 
         100      1.33333 -4.84696e-05 -5.81691e-05     -31.2286 
         100      1.61333 -3.57728e-05 -6.36613e-05     -31.2286 
         100         1.92 -2.67105e-05 -6.66646e-05     -31.2286 
         100      2.25333 -1.91804e-05 -6.67608e-05     -31.2285 
         100      2.61333 -1.46044e-05 -6.42889e-05     -31.2285 
         100            3 -1.34359e-05 -5.98215e-05     -31.2285 
         150            0 -9.09629e-20 -1.63361e-25     -29.5462 
         150     0.013333 -3.61886e-05  1.00445e-07     -29.5462 
         150     0.053333 -4.52724e-05  1.49442e-06     -29.5462 
         150         0.12 -0.000117713  6.58586e-06     -29.5462 
         150     0.213332 -0.000240598  1.68888e-05     -29.5462 
         150     0.333332  -0.00035352  3.15782e-05     -29.5462 
         150         0.48 -0.000412214     4.87e-05     -29.5462 
         150     0.653331 -0.000412151  6.71658e-05     -29.5462 
         150     0.853332  -0.00036682  8.65812e-05     -29.5462 
         150         1.08 -0.000303201  0.000105511     -29.5462 
         150      1.33333 -0.000244888  0.000121906     -29.5462 
         150      1.61333 -0.000186228  0.000134449     -29.5462 
         150         1.92 -0.000115924  0.000141978     -29.5462 
         150      2.25333 -5.38835e-05  0.000143755     -29.5462 
         150      2.61333 -5.78804e-06   0.00013987     -29.5462 
         150            3  2.93574e-05  0.000131288     -29.5462 
         200            0           -0           -0     -27.8856 
         200     0.013333 -7.36492e-05 -4.75042e-08     -27.8856 
         200     0.053333 -0.000139252 -7.70309e-07     -27.8856 
         200         0.12  -0.00018381 -3.79701e-06     -27.8856 
         200     0.213332 -0.000171329 -1.09116e-05     -27.8856 
         200     0.333332 -0.000123154 -2.26426e-05     -27.8856 
         200         0.48 -8.28558e-05 -3.81432e-05     -27.8856 
         200     0.653331 -7.50201e-05 -5.63071e-05     -27.8856 
         200     0.853332  -9.4029e-05 -7.58994e-05     -27.8856 
         200         1.08 -0.000107707 -9.47332e-05     -27.8856 
         200      1.33333 -9.52032e-05 -0.000110621     -27.8856 
         200      1.61333 -7.32133e-05  -0.00012295     -27.8856 
         200         1.92 -5.48388e-05 -0.000130913     -27.8856 
         200      2.25333 -3.84785e-05 -0.000133711     -27.8856 
         200      2.61333 -2.48692e-05 -0.000131399     -27.8856 
         200            3 -1.52699e-05 -0.000124526     -27.8856 
         250            0           -0           -0     -26.2325 
         250     0.013333 -2.05061e-05 -1.22526e-08     -26.2325 
         250     0.053333  3.75336e-05 -1.38493e-07     -26.2325 
         250         0.12  0.000105123 -3.43048e-07     -26.2325 
         250     0.213332  0.000155951 -1.03803e-07     -26.2325 
         250     0.333332  0.000176701  1.29756e-06     -26.2325 
         250         0.48  0.000176566  4.20356e-06     -26.2325 
         250     0.653331  0.000171535  8.40757e-06     -26.2325 
         250     0.853332  0.000165099  1.31643e-05     -26.2325 
         250         1.08  0.000145429  1.73802e-05     -26.2325 
         250      1.33333  0.000109808  2.04978e-05     -26.2325 
         250      1.61333  7.07094e-05  2.29306e-05     -26.2325 
         250         1.92  2.99536e-05  2.47059e-05     -26.2325 
         250      2.25333 -9.12866e-06  2.55889e-05     -26.2325 
         250      2.61333 -4.33304e-05  2.55876e-05     -26.2325 
         250            3 -7.02636e-05  2.47396e-05     -26.2325 
         300            0 -6.35361e-20 -2.36407e-27     -24.5821 
         300     0.013333 -8.41332e-05 -1.30516e-08     -24.5821 
         300     0.053333 -0.000185178 -2.78972e-07     -24.5821 
         300         0.12  -0.00028741 -1.78838e-06     -24.5821 
         300     0.213332 -0.000330436 -6.33373e-06     -24.5821 
         300     0.333332 -0.000307342 -1.53706e-05     -24.5821 
         300         0.48 -0.000258886 -2.88833e-05     -24.5821 
         300     0.653331 -0.000224902 -4.56199e-05     -24.5821 
         300     0.853332  -0.00021102 -6.38367e-05     -24.5821 
         300         1.08 -0.000195793  -8.1698e-05     -24.5821 
         300      1.33333 -0.000165854 -9.79197e-05     -24.5821 
         300      1.61333 -0.000129525 -0.000112044     -24.5821 
         300         1.92 -9.26578e-05 -0.000123184     -24.5821 
         300      2.25333 -5.65798e-05 -0.000130268     -24.5821 
         300      2.61333 -2.40404e-05 -0.000132797     -24.5821 
         300            3  1.85234e-06 -0.000130691     -24.5821 
         350            0            0            0     -22.9324 
         350     0.013333 -5.16256e-05 -3.36018e-08     -22.9324 
         350     0.053333 -6.50799e-05 -5.35119e-07     -22.9324 
         350         0.12 -5.83349e-05 -2.57119e-06     -22.9324 
         350     0.213332 -2.17136e-05 -7.15001e-06     -22.9324 
         350     0.333332  1.80055e-05 -1.41994e-05     -22.9324 
         350         0.48  2.95054e-05 -2.26201e-05     -22.9324 
         350     0.653331  6.28216e-06 -3.13628e-05     -22.9324 
         350     0.853332 -3.45757e-05 -3.97075e-05     -22.9324 
         350         1.08 -6.30546e-05 -4.65272e-05     -22.9324 
         350      1.33333 -6.24978e-05 -5.07778e-05     -22.9324 
         350      1.61333 -5.18293e-05 -5.27732e-05     -22.9324 
         350         1.92 -4.68075e-05  -5.3121e-05     -22.9324 
         350      2.25333 -4.39308e-05 -5.16979e-05     -22.9324 
         350      2.61333 -4.11439e-05 -4.85551e-05     -22.9324 
         350            3 -3.88847e-05 -4.39166e-05     -22.9324 
         400            0            0            0     -21.2831 
         400     0.013333 -0.000156916 -1.15824e-07     -21.2831 
         400     0.053333 -0.000413396  -1.9189e-06     -21.2831 
         400         0.12 -0.000616862 -9.80549e-06     -21.2831 
         400     0.213332  -0.00061639 -2.95464e-05     -21.2831 
         400     0.333332 -0.000437644 -6.44336e-05     -21.2831 
         400         0.48 -0.000227062 -0.000113126     -21.2831 
         400     0.653331 -0.000103937 -0.000171722     -21.2831 
         400     0.853332 -9.04281e-05 -0.000236261     -21.2831 
         400         1.08 -0.000125845 -0.000302257     -21.2831 
         400      1.33333 -0.000130207 -0.000364475     -21.2831 
         400      1.61333 -9.49209e-05 -0.000419351     -21.2831 
         400         1.92 -6.13047e-05 -0.000464447     -21.2831 
         400      2.25333 -3.14394e-05 -0.000496463     -21.2831 
         400      2.61333 -4.55527e-06 -0.000512767     -21.2831 
         400            3  1.61001e-05 -0.000512031     -21.2831 
         450            0 -5.18172e-20  1.73987e-28     -19.6339 
         450     0.013333 -5.59032e-05  1.39592e-07     -19.6339 
         450     0.053333 -0.000127983  2.02067e-06     -19.6339 
         450         0.12 -0.000301898  8.63981e-06     -19.6339 
         450     0.213332 -0.000541784  2.16228e-05     -19.6339 
         450     0.333332 -0.000756584  3.97792e-05     -19.6339 
         450         0.48 -0.000885226   6.0632e-05     -19.6339 
         450     0.653331 -0.000928484  8.28934e-05     -19.6339 
         450     0.853332 -0.000901465  0.000107302     -19.6339 
         450         1.08 -0.000801795   0.00013533     -19.6339 
         450      1.33333 -0.000650378  0.000166401     -19.6339 
         450      1.61333 -0.000503213  0.000196874     -19.6339 
         450         1.92 -0.000368478  0.000223272     -19.6339 
         450      2.25333  -0.00023489  0.000243848     -19.6339 
         450      2.61333 -0.000104032  0.000257102     -19.6339 
         450            3  1.34934e-05  0.000261997     -19.6339 
         500            0            0            0     -17.9842 
         500     0.013333 -4.55992e-06 -5.84611e-08     -17.9842 
         500     0.053333  0.000108815 -8.19539e-07     -17.9842 
         500         0.12  0.000276606 -3.30963e-06     -17.9842 
         500     0.213332  0.000448026 -7.57866e-06     -17.9842 
         500     0.333332  0.000562575 -1.22449e-05     -17.9842 
         500         0.48  0.000600141 -1.56258e-05     -17.9842 
         500     0.653331  0.000584179 -1.71146e-05     -17.9842 
         500     0.853332  0.000542732 -1.73737e-05     -17.9842 
         500         1.08  0.000483478 -1.75354e-05     -17.9842 
         500      1.33333  0.000406648 -1.82168e-05     -17.9842 
         500      1.61333  0.000320472 -1.91834e-05     -17.9842 
         500         1.92  0.000230411 -1.99249e-05     -17.9842 
         500      2.25333  0.000136971  -2.0262e-05     -17.9842 
         500      2.61333  4.32644e-05 -2.01246e-05     -17.9842 
         500            3 -4.39288e-05 -1.94793e-05     -17.9842 
         550            0           -0           -0     -16.3353 
         550     0.013333 -0.000110374  8.71378e-08     -16.3353 
         550     0.053333 -0.000311776  1.21082e-06     -16.3353 
         550         0.12 -0.000613964  4.81185e-06     -16.3353 
         550     0.213332  -0.00091886   1.0729e-05     -16.3353 
         550     0.333332  -0.00112257  1.65837e-05     -16.3353 
         550         0.48  -0.00119286  1.96164e-05     -16.3353 
         550     0.653331  -0.00117271  1.88371e-05     -16.3353 
         550     0.853332  -0.00111248  1.53704e-05     -16.3353 
         550         1.08  -0.00102294  1.13614e-05     -16.3353 
         550      1.33333 -0.000896655  8.31827e-06     -16.3353 
         550      1.61333 -0.000746235  6.10194e-06     -16.3353 
         550         1.92 -0.000586617  3.91214e-06     -16.3353 
         550      2.25333  -0.00041807  1.65079e-06     -16.3353 
         550      2.61333 -0.000245215 -5.39293e-07     -16.3352 
         550            3 -7.97541e-05 -2.54293e-06     -16.3352 
         600            0            0            0     -14.6851 
         600     0.013333  1.02017e-05 -1.21694e-07     -14.6851 
         600     0.053333  0.000181818   -1.743e-06     -14.6851 
         600         0.12  0.000468872 -7.31494e-06     -14.6851 
         600     0.213332  0.000802839 -1.77813e-05     -14.6851 
         600     0.333332   0.00107258 -3.13322e-05     -14.6851 
         600         0.48   0.00121699 -4.50358e-05     -14.6851 
         600     0.653331   0.00125361 -5.73927e-05     -14.6851 
         600     0.853332   0.00122092  -6.9189e-05     -14.6851 
         600         1.08   0.00112741 -8.24056e-05     -14.6851 
         600      1.33333  0.000975662 -9.79479e-05     -14.6851 
         600      1.61333  0.000798561 -0.000114366     -14.6851 
         600         1.92  0.000620109   -0.0001294     -14.6851 
         600      2.25333  0.000434267 -0.000141869     -14.6851 
         600      2.61333     0.000242 -0.000150947     -14.6851 
         600            3  5.48435e-05 -0.000155929     -14.6851 
         650            0           -0           -0     -13.0358 
         650     0.013333 -5.20891e-05  5.60144e-08     -13.0358 
         650     0.053333 -9.20404e-05  8.00881e-07     -13.0358 
         650         0.12 -0.000176242  3.35937e-06     -13.0358 
         650     0.213332 -0.000281718  8.20423e-06     -13.0358 
         650     0.333332 -0.000368387  1.46812e-05     -13.0358 
         650         0.48 -0.000414786  2.17738e-05     -13.0358 
         650     0.653331 -0.000428058  2.91224e-05     -13.0358 
         650     0.853332 -0.000418878  3.72861e-05     -13.0358 
         650         1.08 -0.000382494   4.7304e-05     -13.0358 
         650      1.33333 -0.000315745   5.9602e-05     -13.0358 
         650      1.61333 -0.000241698  7.30041e-05     -13.0358 
         650         1.92 -0.000182523  8.56028e-05     -13.0358 
         650      2.25333 -0.000129524  9.64523e-05     -13.0358 
         650      2.61333 -7.70487e-05  0.000104936     -13.0358 
         650            3 -2.75445e-05  0.000110527     -13.0358 
         700            0            0            0     -11.3857 
         700     0.013333  -1.8485e-05 -2.75288e-08     -11.3857 
         700     0.053333  5.21111e-05  -3.8805e-07     -11.3857 
         700         0.12  0.000154657 -1.58205e-06     -11.3857 
         700     0.213332  0.000261867 -3.66732e-06     -11.3857 
         700     0.333332  0.000338419 -5.98514e-06     -11.3857 
         700         0.48  0.000368536 -7.60942e-06     -11.3857 
         700     0.653331  0.000363013 -8.01386e-06     -11.3857 
         700     0.853332  0.000341678 -7.30854e-06     -11.3857 
         700         1.08  0.000313727  -6.0553e-06     -11.3857 
         700      1.33333  0.000276175 -4.88609e-06     -11.3857 
         700      1.61333  0.000228249 -4.04135e-06     -11.3857 
         700         1.92   0.00017691 -3.24074e-06     -11.3857 
         700      2.25333   0.00012307 -2.31728e-06     -11.3857 
         700      2.61333  6.69436e-05 -1.29021e-06     -11.3857 
         700            3  1.07205e-05 -2.27346e-07     -11.3857 
         750            0           -0           -0     -9.73587 
         750     0.013333  6.60209e-06  5.54638e-08     -9.73587 
         750     0.053333  0.000114304  8.93151e-07     -9.73587 
         750         0.12  0.000188062  4.45053e-06     -9.73587 
         750     0.213332  0.000161403  1.32579e-05     -9.73587 
         750     0.333332  4.18317e-05  2.89499e-05     -9.73587 
         750         0.48 -0.000101259  5.11787e-05     -9.73587 
         750     0.653331 -0.000201995  7.81399e-05     -9.73587 
         750     0.853332 -0.000239345  0.000107917     -9.73587 
         750         1.08 -0.000230247  0.000139037     -9.73587 
         750      1.33333 -0.000205074  0.000170176     -9.73587 
         750      1.61333 -0.000183982  0.000200063     -9.73587 
         750         1.92 -0.000166392  0.000227577     -9.73587 
         750      2.25333 -0.000146281   0.00025135     -9.73587 
         750      2.61333 -0.000122902   0.00026994     -9.73587 
         750            3 -9.80053e-05  0.000281988     -9.73588 
         800            0 -8.96445e-20 -6.51582e-28     -8.08611 
         800     0.013333 -0.000157314 -1.20797e-09     -8.08611 
         800     0.053333 -0.000453331  -1.6669e-07     -8.08611 
         800         0.12 -0.000799337 -1.75503e-06     -8.08611 
         800     0.213332  -0.00103471 -7.91502e-06     -8.08611 
         800     0.333332  -0.00108467 -2.22972e-05     -8.08611 
         800         0.48  -0.00100365 -4.64026e-05     -8.08611 
         800     0.653331 -0.000902598 -7.87046e-05     -8.08611 
         800     0.853332 -0.000846629 -0.000115971     -8.08611 
         800         1.08 -0.000818861 -0.000154459     -8.08611 
         800      1.33333 -0.000760615 -0.000190687     -8.08611 
         800      1.61333 -0.000649625 -0.000222916     -8.08611 
         800         1.92 -0.000525531 -0.000251467     -8.08611 
         800      2.25333 -0.000401302 -0.000275923     -8.08611 
         800      2.61333 -0.000275028 -0.000294835      -8.0861 
         800            3 -0.000148162 -0.000306657     -8.08609 
         850            0            0            0     -6.43537 
         850     0.013333  0.000105331 -5.04077e-08     -6.43537 
         850     0.053333  0.000501183  -5.6359e-07     -6.43537 
         850         0.12  0.000994761 -1.23682e-06     -6.43537 
         850     0.213332   0.00138445  9.38069e-07     -6.43537 
         850     0.333332   0.00153698  1.07852e-05     -6.43537 
         850         0.48   0.00148313  3.13473e-05     -6.43537 
         850     0.653331    0.0013573  6.16691e-05     -6.43537 
         850     0.853332   0.00125859  9.77812e-05     -6.43536 
         850         1.08   0.00117857  0.000134531     -6.43536 
         850      1.33333   0.00104852  0.000167412     -6.43536 
         850      1.61333  0.000855015   0.00019505     -6.43537 
         850         1.92  0.000661604  0.000219202     -6.43537 
         850      2.25333  0.000479567  0.000240368     -6.43538 
         850      2.61333  0.000298692  0.000257397     -6.43539 
         850            3  0.000115187  0.000268746      -6.4354 
         900            0           -0           -0     -4.78633 
         900     0.013333 -0.000153736  1.63266e-07     -4.78633 
         900     0.053333 -0.000494455  2.30346e-06     -4.78633 
         900         0.12  -0.00103068  9.40854e-06     -4.78633 
         900     0.213332   -0.0016092  2.19059e-05     -4.78633 
         900     0.333332  -0.00203476  3.61692e-05     -4.78633 
         900         0.48   -0.0022194  4.73796e-05     -4.78633 
         900     0.653331  -0.00222294  5.35281e-05     -4.78633 
         900     0.853332  -0.00214256  5.66018e-05     -4.78633 
         900         1.08  -0.00200219  6.10264e-05     -4.78633 
         900      1.33333  -0.00177169  7.04514e-05     -4.78633 
         900      1.61333  -0.00147643  8.43861e-05     -4.78633 
         900         1.92  -0.00120046   9.8561e-05     -4.78633 
         900      2.25333 -0.000938737  0.000110528     -4.78632 
         900      2.61333 -0.000669646  0.000119884     -4.78631 
         900            3 -0.000390901  0.000126605     -4.78629 
         950            0            0            0     -3.13544 
         950     0.013333 -9.83105e-05 -1.39814e-07     -3.13544 
         950     0.053333 -0.000200185 -2.13827e-06     -3.13544 
         950         0.12 -0.000215946 -9.93411e-06     -3.13544 
         950     0.213332 -6.81094e-05 -2.74904e-05     -3.13544 
         950     0.333332  0.000188326 -5.61565e-05     -3.13544 
         950         0.48  0.000430858 -9.41372e-05     -3.13544 
         950     0.653331   0.00057652 -0.000138607     -3.13544 
         950     0.853332  0.000609702 -0.000188038     -3.13544 
         950         1.08  0.000542182 -0.000242391     -3.13544 
         950      1.33333  0.000404693 -0.000300945     -3.13544 
         950      1.61333  0.000267534 -0.000360193     -3.13544 
         950         1.92  0.000188844 -0.000415281     -3.13544 
         950      2.25333  0.000136521 -0.000463616     -3.13544 
         950      2.61333  8.29893e-05 -0.000503256     -3.13545 
         950            3   2.5366e-05  -0.00053221     -3.13545 
        1000            0           -0           -0     -1.48501 
        1000     0.013333  3.14653e-05 -5.76367e-08     -1.48501 
        1000     0.053333  0.000243882  -8.0126e-07     -1.48501 
        1000         0.12  0.000549191 -3.19953e-06     -1.48501 
        1000     0.213332   0.00086427 -7.18653e-06     -1.48501 
        1000     0.333332   0.00109673 -1.11466e-05     -1.48501 
        1000         0.48   0.00120582 -1.29505e-05     -1.48501 
        1000     0.653331   0.00121688 -1.14227e-05     -1.48501 
        1000     0.853332   0.00118056 -6.83464e-06     -1.48501 
        1000         1.08    0.0011266 -4.49814e-07     -1.48501 
        1000      1.33333   0.00105123  6.11526e-06     -1.48501 
        1000      1.61333  0.000939033  1.14717e-05     -1.48501 
        1000         1.92  0.000793621  1.52948e-05     -1.48501 
        1000      2.25333  0.000635503  1.81569e-05     -1.48501 
        1000      2.61333   0.00047227  2.04038e-05     -1.48502 
        1000            3  0.000301362  2.20383e-05     -1.48503 
