Variables = x, y, u, v, p

Zone, I=416, F=POINT
         -50            0            0            0      20.7982 
         -50     0.013333  4.63116e-05  1.26788e-08      20.7982 
         -50     0.053333  4.14966e-05  3.24128e-08      20.7982 
         -50         0.12  4.04358e-05  4.81875e-08      20.7982 
         -50     0.213332  4.07341e-05  4.86684e-08      20.7982 
         -50     0.333332  4.11963e-05  3.70922e-08      20.7982 
         -50         0.48  4.13021e-05  3.32263e-08      20.7981 
         -50     0.653331  4.11061e-05 -3.98361e-08       20.798 
         -50     0.853332  4.08444e-05 -3.00964e-08      20.7979 
         -50         1.08  4.08019e-05 -2.26431e-08      20.7978 
         -50      1.33333  4.08841e-05  6.98245e-08      20.7976 
         -50      1.61333  4.09646e-05  1.34603e-07      20.7973 
         -50         1.92  4.04396e-05  3.46886e-07       20.797 
         -50      2.25333   3.9747e-05  4.98986e-07      20.7965 
         -50      2.61333  3.91805e-05  6.19494e-07      20.7959 
         -50            3  3.89581e-05  8.80166e-07      20.7952 
         -25            0           -0           -0      19.9861 
         -25     0.013333  3.41718e-05  5.87099e-09      19.9861 
         -25     0.053333  3.10606e-05  2.88243e-08      19.9861 
         -25         0.12   3.0031e-05  9.30886e-08      19.9861 
         -25     0.213332  2.91896e-05  2.16629e-07      19.9861 
         -25     0.333332  2.82728e-05  4.01435e-07      19.9861 
         -25         0.48  2.75927e-05  6.40054e-07      19.9861 
         -25     0.653331  2.75376e-05  9.25073e-07      19.9861 
         -25     0.853332  2.80596e-05  1.24582e-06      19.9861 
         -25         1.08  2.87255e-05  1.55557e-06       19.986 
         -25      1.33333    2.931e-05  1.83254e-06      19.9859 
         -25      1.61333  2.97773e-05  2.02333e-06      19.9858 
         -25         1.92  3.02339e-05  2.17965e-06      19.9857 
         -25      2.25333  3.09643e-05  2.20055e-06      19.9855 
         -25      2.61333  3.15436e-05  2.15703e-06      19.9853 
         -25            3  3.15689e-05  2.27923e-06       19.985 
           0            0  8.13019e-20 -1.01823e-19      19.3239 
           0     0.013333  7.61386e-05 -4.58889e-05      19.3245 
           0     0.053333  4.74843e-05 -2.35165e-05      19.3256 
           0         0.12   3.7923e-05 -1.56877e-05      19.3267 
           0     0.213332   3.4263e-05 -1.18472e-05      19.3279 
           0     0.333332   3.2687e-05  -9.4594e-06      19.3291 
           0         0.48  3.15813e-05 -7.71429e-06      19.3303 
           0     0.653331  3.08251e-05 -6.39324e-06      19.3314 
           0     0.853332  3.01135e-05  -5.3603e-06      19.3325 
           0         1.08  2.92421e-05 -4.53622e-06      19.3336 
           0      1.33333  2.83229e-05 -3.86349e-06      19.3346 
           0      1.61333  2.75231e-05 -3.29609e-06      19.3355 
           0         1.92  2.68078e-05 -2.80113e-06      19.3364 
           0      2.25333  2.61774e-05 -2.31362e-06      19.3372 
           0      2.61333  2.59916e-05 -1.86221e-06      19.3379 
           0            3   2.5825e-05 -1.82733e-06      19.3386 
          20            0  -8.4965e-06  6.47083e-06      18.9076 
          20     0.013333 -6.89465e-06  6.35436e-06      18.9076 
          20     0.053333 -2.30299e-06  5.95849e-06      18.9076 
          20         0.12   4.4521e-06  5.14224e-06      18.9076 
          20     0.213332  1.15754e-05  3.68296e-06      18.9076 
          20     0.333332  1.66824e-05   1.3397e-06      18.9076 
          20         0.48  1.88632e-05 -1.93123e-06      18.9075 
          20     0.653331  2.07071e-05 -5.84248e-06      18.9075 
          20     0.853332   2.4473e-05 -9.93212e-06      18.9075 
          20         1.08  3.00822e-05 -1.37587e-05      18.9075 
          20      1.33333  3.60049e-05 -1.70103e-05      18.9074 
          20      1.61333  4.14425e-05 -1.93781e-05      18.9074 
          20         1.92  4.49878e-05 -2.06578e-05      18.9074 
          20      2.25333    4.574e-05 -2.08638e-05      18.9073 
          20      2.61333  4.48565e-05 -2.00901e-05      18.9072 
          20            3  4.29439e-05 -1.88185e-05      18.9071 
          40            0 -9.16584e-05 -3.88603e-05      18.5058 
          40     0.013333 -8.34494e-05 -3.96573e-05      18.5058 
          40     0.053333 -5.91497e-05 -4.21374e-05      18.5058 
          40         0.12 -2.07835e-05 -4.66149e-05      18.5058 
          40     0.213332  2.51707e-05 -5.37277e-05      18.5057 
          40     0.333332  6.60242e-05   -6.438e-05      18.5057 
          40         0.48  8.86054e-05 -7.91396e-05      18.5056 
          40     0.653331  9.25618e-05 -9.71582e-05      18.5055 
          40     0.853332  9.13051e-05 -0.000115899      18.5054 
          40         1.08  9.37798e-05 -0.000132385      18.5052 
          40      1.33333  9.82067e-05 -0.000144266      18.5051 
          40      1.61333  0.000100977  -0.00014998      18.5049 
          40         1.92  0.000100126 -0.000148956      18.5046 
          40      2.25333  9.49342e-05 -0.000141853      18.5043 
          40      2.61333  8.62213e-05 -0.000130329       18.504 
          40            3  7.66864e-05 -0.000116186      18.5037 
          60            0           -0           -0      18.0998 
          60     0.013333  -3.9207e-05 -1.54283e-08      18.0998 
          60     0.053333 -0.000189871 -4.14635e-07      18.0998 
          60         0.12 -0.000323784 -2.89889e-06      18.0998 
          60     0.213332 -0.000363914 -1.05447e-05      18.0998 
          60     0.333332 -0.000327838 -2.58234e-05      18.0998 
          60         0.48 -0.000297583 -4.90565e-05      18.0998 
          60     0.653331 -0.000312219 -7.79287e-05      18.0998 
          60     0.853332 -0.000319648 -0.000107978      18.0998 
          60         1.08 -0.000288028 -0.000137016      18.0998 
          60      1.33333 -0.000217086 -0.000163174      18.0998 
          60      1.61333 -0.000119502 -0.000182823      18.0998 
          60         1.92 -2.76048e-05 -0.000193135      18.0997 
          60      2.25333  4.95578e-05 -0.000193385      18.0997 
          60      2.61333  0.000101712 -0.000185462      18.0997 
          60            3  0.000123746 -0.000171807      18.0996 
          80            0  2.00702e-20  4.53195e-25      17.7093 
          80     0.013333 -2.33152e-05  9.06965e-09      17.7093 
          80     0.053333 -0.000142327  4.77181e-09      17.7093 
          80         0.12 -0.000267667 -7.33507e-07      17.7093 
          80     0.213332 -0.000339113 -3.99419e-06      17.7093 
          80     0.333332 -0.000349158 -1.13724e-05      17.7093 
          80         0.48 -0.000340375 -2.30794e-05      17.7093 
          80     0.653331 -0.000352647 -3.79326e-05      17.7093 
          80     0.853332 -0.000370807 -5.26692e-05      17.7093 
          80         1.08 -0.000335487 -6.27917e-05      17.7093 
          80      1.33333 -0.000248378 -6.68936e-05      17.7093 
          80      1.61333  -0.00015095 -6.78601e-05      17.7093 
          80         1.92 -4.50386e-05  -6.6176e-05      17.7093 
          80      2.25333  3.88057e-05 -6.18274e-05      17.7093 
          80      2.61333  9.28725e-05 -5.59241e-05      17.7093 
          80            3  0.000126715 -4.90313e-05      17.7093 
         100            0           -0           -0      17.3284 
         100     0.013333 -5.42734e-06  2.20479e-08      17.3284 
         100     0.053333  -8.1435e-05  2.38773e-07      17.3284 
         100         0.12  -0.00016652  5.22849e-07      17.3284 
         100     0.213332  -0.00021968 -1.72395e-07      17.3284 
         100     0.333332 -0.000227951 -3.12102e-06      17.3284 
         100         0.48 -0.000212594 -8.62871e-06      17.3284 
         100     0.653331 -0.000194189 -1.57561e-05      17.3284 
         100     0.853332 -0.000164848 -2.26013e-05      17.3284 
         100         1.08 -0.000108335 -2.74176e-05      17.3284 
         100      1.33333 -4.67528e-05 -3.01866e-05      17.3284 
         100      1.61333 -6.22063e-06 -3.22838e-05      17.3284 
         100         1.92  2.71786e-05 -3.34112e-05      17.3284 
         100      2.25333  5.39204e-05 -3.31138e-05      17.3284 
         100      2.61333  7.17679e-05 -3.16491e-05      17.3284 
         100            3   8.0535e-05 -2.91571e-05      17.3284 
         150            0   6.9274e-20  8.02122e-26      16.3961 
         150     0.013333  4.71557e-05 -2.24327e-08      16.3961 
         150     0.053333  0.000110286 -2.58522e-07      16.3961 
         150         0.12  0.000184868  -6.6474e-07      16.3961 
         150     0.213332  0.000229866 -3.19378e-07      16.3961 
         150     0.333332  0.000230558  1.98652e-06      16.3961 
         150         0.48  0.000206706  6.56145e-06      16.3961 
         150     0.653331  0.000180927  1.25931e-05      16.3961 
         150     0.853332  0.000154497  1.87348e-05      16.3961 
         150         1.08   0.00011985  2.40314e-05      16.3961 
         150      1.33333  8.28889e-05  2.84048e-05      16.3961 
         150      1.61333  5.13984e-05  3.21979e-05      16.3961 
         150         1.92  2.26265e-05  3.49647e-05      16.3961 
         150      2.25333 -2.01647e-06   3.6262e-05       16.396 
         150      2.61333  -2.0215e-05  3.61692e-05       16.396 
         150            3 -3.06491e-05  3.47639e-05       16.396 
         200            0           -0           -0      15.4757 
         200     0.013333  6.06298e-05  3.56771e-08      15.4757 
         200     0.053333  0.000145204  6.04159e-07      15.4757 
         200         0.12  0.000215712  3.14222e-06      15.4757 
         200     0.213332  0.000226111  9.52876e-06      15.4757 
         200     0.333332  0.000187469  2.07338e-05      15.4757 
         200         0.48  0.000143527  3.62102e-05      15.4757 
         200     0.653331  0.000123841  5.46684e-05      15.4757 
         200     0.853332  0.000126594  7.46466e-05      15.4757 
         200         1.08  0.000128012  9.43176e-05      15.4757 
         200      1.33333  0.000111013  0.000111808      15.4757 
         200      1.61333   8.3359e-05  0.000126039      15.4757 
         200         1.92   5.5557e-05  0.000135771      15.4757 
         200      2.25333  2.94265e-05  0.000140081      15.4757 
         200      2.61333  7.51056e-06  0.000138934      15.4757 
         200            3 -8.51626e-06  0.000132801      15.4756 
         250            0           -0           -0      14.5592 
         250     0.013333  5.85036e-05  1.20623e-07      14.5592 
         250     0.053333  0.000113608  1.86794e-06      14.5592 
         250         0.12  9.17922e-05  8.74398e-06      14.5592 
         250     0.213332 -4.20981e-05  2.40526e-05      14.5592 
         250     0.333332 -0.000218228  4.81871e-05      14.5592 
         250         0.48 -0.000343776  7.86785e-05      14.5592 
         250     0.653331 -0.000382075  0.000112785      14.5592 
         250     0.853332 -0.000348563  0.000148736      14.5592 
         250         1.08 -0.000284222  0.000184429      14.5592 
         250      1.33333 -0.000227423  0.000216985      14.5592 
         250      1.61333 -0.000177449   0.00024408      14.5592 
         250         1.92 -0.000115772  0.000263536      14.5592 
         250      2.25333 -5.48096e-05  0.000273535      14.5592 
         250      2.61333  3.76969e-07  0.000273401      14.5592 
         250            3  4.77065e-05  0.000263624      14.5592 
         300            0  6.20614e-20  3.74835e-28      13.6443 
         300     0.013333  0.000122183  4.51418e-08      13.6443 
         300     0.053333  0.000361988  8.29176e-07      13.6443 
         300         0.12  0.000605125  4.69224e-06      13.6443 
         300     0.213332  0.000727477  1.53032e-05      13.6443 
         300     0.333332  0.000714578  3.53774e-05      13.6443 
         300         0.48   0.00064421  6.49603e-05      13.6443 
         300     0.653331  0.000595528   0.00010219      13.6443 
         300     0.853332  0.000588805  0.000144326      13.6443 
         300         1.08  0.000579351  0.000187396      13.6443 
         300      1.33333  0.000513971  0.000226906      13.6443 
         300      1.61333  0.000403351  0.000260385      13.6443 
         300         1.92  0.000282321  0.000286074      13.6443 
         300      2.25333  0.000161053  0.000301878      13.6443 
         300      2.61333  4.76998e-05  0.000306758      13.6443 
         300            3 -4.79661e-05  0.000300625      13.6443 
         350            0            0            0      12.7294 
         350     0.013333  1.93681e-05  2.78763e-09      12.7294 
         350     0.053333  8.88702e-06  4.67429e-08      12.7294 
         350         0.12 -4.30955e-06   2.2025e-07      12.7294 
         350     0.213332 -1.57601e-05  5.23267e-07      12.7294 
         350     0.333332 -1.77292e-05  7.06384e-07      12.7294 
         350         0.48 -7.55382e-06  4.33641e-07      12.7294 
         350     0.653331  1.03085e-05 -4.01319e-07      12.7294 
         350     0.853332  2.87779e-05 -1.77503e-06      12.7294 
         350         1.08  3.84104e-05 -3.95473e-06      12.7294 
         350      1.33333  3.40482e-05 -7.26387e-06      12.7294 
         350      1.61333  2.59665e-05 -1.12855e-05      12.7294 
         350         1.92  2.17298e-05 -1.52719e-05      12.7294 
         350      2.25333  1.93953e-05 -1.88967e-05      12.7294 
         350      2.61333  1.76455e-05 -2.18876e-05      12.7294 
         350            3  1.65367e-05 -2.40405e-05      12.7294 
         400            0            0            0      11.8147 
         400     0.013333  5.32262e-05  5.52254e-08      11.8147 
         400     0.053333  0.000114252  8.67811e-07      11.8147 
         400         0.12  0.000145403  4.16198e-06      11.8147 
         400     0.213332  0.000107639  1.18302e-05      11.8147 
         400     0.333332  2.13086e-05  2.46273e-05      11.8147 
         400         0.48  -6.2806e-05  4.18247e-05      11.8147 
         400     0.653331 -0.000109606  6.21886e-05      11.8147 
         400     0.853332 -0.000112245  8.47917e-05      11.8147 
         400         1.08 -8.61457e-05   0.00010857      11.8147 
         400      1.33333 -6.01682e-05  0.000131736      11.8147 
         400      1.61333 -4.69999e-05   0.00015253      11.8147 
         400         1.92 -3.36748e-05  0.000169754      11.8147 
         400      2.25333 -1.87678e-05  0.000182201      11.8147 
         400      2.61333 -3.53367e-06  0.000188868      11.8147 
         400            3  1.10335e-05  0.000189225      11.8147 
         450            0  8.57109e-21 -5.59058e-28      10.8999 
         450     0.013333 -2.41253e-05 -2.91271e-08      10.8999 
         450     0.053333 -0.000135283 -4.99986e-07      10.8999 
         450         0.12 -0.000235984 -2.68616e-06      10.8999 
         450     0.213332 -0.000263035 -8.56881e-06      10.8999 
         450     0.333332 -0.000208359 -1.97742e-05      10.8999 
         450         0.48 -0.000117542 -3.64702e-05      10.8999 
         450     0.653331 -4.15739e-05 -5.74717e-05      10.8999 
         450     0.853332 -8.52944e-07 -8.12099e-05      10.8999 
         450         1.08  1.18902e-05 -0.000106349      10.8999 
         450      1.33333  1.30526e-05 -0.000131719      10.8999 
         450      1.61333  1.60883e-05 -0.000155947      10.8999 
         450         1.92  2.30388e-05 -0.000177354      10.8999 
         450      2.25333    3.115e-05 -0.000194336      10.8999 
         450      2.61333  3.85285e-05 -0.000205584      10.8999 
         450            3  4.42093e-05 -0.000210239      10.8999 
         500            0            0            0      9.98513 
         500     0.013333  6.87453e-05  7.44601e-08      9.98513 
         500     0.053333  0.000165759  1.16117e-06      9.98513 
         500         0.12  0.000231005  5.51638e-06      9.98513 
         500     0.213332  0.000210413  1.55441e-05      9.98513 
         500     0.333332  0.000126376  3.21589e-05      9.98513 
         500         0.48  4.08547e-05  5.44696e-05      9.98513 
         500     0.653331 -2.22289e-06   8.1095e-05      9.98513 
         500     0.853332  8.18606e-06  0.000111161      9.98513 
         500         1.08  5.49113e-05  0.000143563      9.98513 
         500      1.33333  9.41876e-05  0.000175817      9.98513 
         500      1.61333  9.72654e-05  0.000205098      9.98513 
         500         1.92  8.59722e-05  0.000229859      9.98513 
         500      2.25333  7.26044e-05  0.000248837      9.98513 
         500      2.61333  5.87922e-05  0.000260635      9.98513 
         500            3  4.42462e-05  0.000264218      9.98513 
         550            0           -0           -0      9.07015 
         550     0.013333  2.86739e-05 -2.75076e-08      9.07015 
         550     0.053333   5.0895e-05 -3.92869e-07      9.07015 
         550         0.12  9.64408e-05 -1.64533e-06      9.07015 
         550     0.213332  0.000152936 -4.01087e-06      9.07015 
         550     0.333332  0.000199634 -7.15911e-06      9.07015 
         550         0.48   0.00022541 -1.05608e-05      9.07015 
         550     0.653331  0.000233659 -1.39658e-05      9.07015 
         550     0.853332  0.000230195 -1.75675e-05      9.07015 
         550         1.08     0.000213 -2.18589e-05      9.07015 
         550      1.33333  0.000180286  -2.7082e-05      9.07015 
         550      1.61333  0.000143411 -3.26422e-05      9.07015 
         550         1.92  0.000111269 -3.76354e-05      9.07015 
         550      2.25333  8.00918e-05 -4.16809e-05      9.07015 
         550      2.61333  4.86211e-05 -4.45328e-05      9.07015 
         550            3  1.92579e-05  -4.5998e-05      9.07015 
         600            0            0            0      8.15487 
         600     0.013333  3.59196e-05 -5.32152e-09      8.15487 
         600     0.053333   7.1564e-05 -6.91807e-08      8.15487 
         600         0.12  0.000121143 -2.33401e-07      8.15487 
         600     0.213332  0.000164974 -3.32856e-07      8.15487 
         600     0.333332  0.000186486  5.87844e-08      8.15487 
         600         0.48  0.000182539  1.40832e-06      8.15487 
         600     0.653331  0.000163426  3.93928e-06      8.15487 
         600     0.853332  0.000142435  7.58102e-06      8.15487 
         600         1.08  0.000126604   1.2092e-05      8.15487 
         600      1.33333  0.000114748  1.71508e-05      8.15487 
         600      1.61333  0.000102148  2.24015e-05      8.15487 
         600         1.92  8.61505e-05  2.75058e-05      8.15487 
         600      2.25333  6.74869e-05  3.21347e-05      8.15487 
         600      2.61333  4.76505e-05  3.59993e-05      8.15487 
         600            3   2.8209e-05   3.8859e-05      8.15487 
         650            0           -0           -0      7.23907 
         650     0.013333  1.96376e-05  9.20349e-08      7.23907 
         650     0.053333 -1.90316e-05  1.38805e-06      7.23907 
         650         0.12 -0.000139511  6.29962e-06      7.23907 
         650     0.213332 -0.000341312  1.68555e-05      7.23907 
         650     0.333332 -0.000553299  3.29625e-05      7.23907 
         650         0.48 -0.000695654  5.25102e-05      7.23907 
         650     0.653331 -0.000741857  7.32666e-05      7.23907 
         650     0.853332 -0.000712669  9.42491e-05      7.23907 
         650         1.08 -0.000639959  0.000115255      7.23907 
         650      1.33333 -0.000552756  0.000135679      7.23907 
         650      1.61333 -0.000467697  0.000154493      7.23908 
         650         1.92  -0.00037881   0.00017084      7.23908 
         650      2.25333  -0.00028085  0.000183859      7.23908 
         650      2.61333  -0.00017634  0.000192622      7.23909 
         650            3 -7.18972e-05  0.000196299      7.23909 
         700            0            0            0      6.32367 
         700     0.013333  -4.7619e-06 -1.89652e-07      6.32367 
         700     0.053333 -1.72351e-05 -2.87376e-06      6.32367 
         700         0.12  0.000118821 -1.31353e-05      6.32367 
         700     0.213332  0.000433473 -3.54731e-05      6.32367 
         700     0.333332  0.000803672 -7.02038e-05      6.32367 
         700         0.48   0.00106958 -0.000113554      6.32367 
         700     0.653331    0.0011639  -0.00016144      6.32367 
         700     0.853332   0.00110843 -0.000212267      6.32367 
         700         1.08  0.000953626 -0.000265728      6.32367 
         700      1.33333  0.000770831 -0.000319646      6.32367 
         700      1.61333  0.000626353 -0.000369957      6.32367 
         700         1.92  0.000508955 -0.000413809      6.32366 
         700      2.25333  0.000385471 -0.000449475      6.32366 
         700      2.61333  0.000251413 -0.000474898      6.32365 
         700            3  0.000118281 -0.000487972      6.32364 
         750            0           -0           -0      5.40708 
         750     0.013333  9.14205e-05  2.44093e-07      5.40708 
         750     0.053333  0.000192132  3.72934e-06      5.40708 
         750         0.12  0.000121103  1.72637e-05      5.40708 
         750     0.213332 -0.000210601  4.73814e-05      5.40708 
         750     0.333332 -0.000672662  9.55256e-05      5.40708 
         750         0.48  -0.00105003  0.000157544      5.40708 
         750     0.653331  -0.00122492   0.00022816      5.40708 
         750     0.853332  -0.00119871  0.000304881      5.40708 
         750         1.08  -0.00102276  0.000387008      5.40708 
         750      1.33333 -0.000791354  0.000471348      5.40708 
         750      1.61333 -0.000613608  0.000551472      5.40708 
         750         1.92 -0.000493901  0.000622426      5.40708 
         750      2.25333 -0.000374224  0.000681531      5.40709 
         750      2.61333 -0.000240063  0.000725759       5.4071 
         750            3 -0.000105746  0.000751828       5.4071 
         800            0 -2.43627e-20  1.69495e-28      4.49109 
         800     0.013333 -0.000112325 -1.56129e-07      4.49109 
         800     0.053333  -0.00041553 -2.47391e-06      4.49109 
         800         0.12 -0.000654887  -1.2041e-05      4.49109 
         800     0.213332 -0.000660761  -3.4928e-05      4.49109 
         800     0.333332 -0.000453804 -7.43938e-05      4.49108 
         800         0.48  -0.00019288 -0.000129092      4.49108 
         800     0.653331 -2.09584e-05 -0.000195354      4.49108 
         800     0.853332  8.52437e-06 -0.000270339      4.49108 
         800         1.08 -8.38197e-05 -0.000351943      4.49108 
         800      1.33333 -0.000208551 -0.000435869      4.49108 
         800      1.61333  -0.00025192 -0.000515471      4.49108 
         800         1.92 -0.000215006 -0.000586178      4.49109 
         800      2.25333 -0.000162572 -0.000645992      4.49109 
         800      2.61333 -0.000117737 -0.000692123      4.49109 
         800            3 -7.00368e-05 -0.000721389      4.49109 
         850            0            0            0      3.57507 
         850     0.013333  9.09737e-05  1.32151e-08      3.57507 
         850     0.053333  0.000265075  2.64948e-07      3.57507 
         850         0.12  0.000470861  1.62457e-06      3.57507 
         850     0.213332  0.000625863  5.64374e-06      3.57507 
         850     0.333332  0.000695894  1.37128e-05      3.57507 
         850         0.48  0.000703931  2.62192e-05      3.57507 
         850     0.653331  0.000694604  4.27652e-05      3.57507 
         850     0.853332  0.000701221  6.28367e-05      3.57507 
         850         1.08  0.000729538  8.55739e-05      3.57507 
         850      1.33333  0.000742787  0.000108695      3.57507 
         850      1.61333  0.000690433  0.000128971      3.57507 
         850         1.92  0.000584011  0.000145094      3.57507 
         850      2.25333  0.000466158  0.000157672      3.57506 
         850      2.61333  0.000348966  0.000166693      3.57506 
         850            3   0.00022638  0.000171551      3.57506 
         900            0           -0           -0      2.65865 
         900     0.013333  6.70616e-05 -4.95853e-08      2.65865 
         900     0.053333  0.000198572 -7.02901e-07      2.65865 
         900         0.12  0.000400644 -2.87624e-06      2.65865 
         900     0.213332  0.000613256 -6.62423e-06      2.65865 
         900     0.333332  0.000762019 -1.05235e-05      2.65865 
         900         0.48    0.0008124 -1.26109e-05      2.65865 
         900     0.653331  0.000787277 -1.19772e-05      2.65865 
         900     0.853332  0.000726819 -9.32555e-06      2.65865 
         900         1.08  0.000648584 -6.15374e-06      2.65865 
         900      1.33333  0.000557882 -3.20906e-06      2.65865 
         900      1.61333  0.000472548  1.62956e-07      2.65865 
         900         1.92  0.000400597  4.64695e-06      2.65865 
         900      2.25333  0.000324776  9.79406e-06      2.65865 
         900      2.61333  0.000239483  1.50212e-05      2.65864 
         900            3  0.000150216  2.00082e-05      2.65864 
         950            0            0            0      1.74179 
         950     0.013333  5.86894e-05  9.17338e-08      1.74179 
         950     0.053333  0.000122599  1.40496e-06      1.74179 
         950         0.12  0.000128282  6.54452e-06      1.74179 
         950     0.213332   2.6397e-05  1.81343e-05      1.74179 
         950     0.333332 -0.000143894  3.70045e-05      1.74179 
         950         0.48 -0.000298782  6.18341e-05      1.74179 
         950     0.653331 -0.000383085  9.06909e-05      1.74179 
         950     0.853332 -0.000388045  0.000122631      1.74179 
         950         1.08 -0.000325908  0.000157586      1.74179 
         950      1.33333 -0.000227642  0.000194663      1.74179 
         950      1.61333 -0.000145667  0.000231251      1.74179 
         950         1.92 -0.000104573  0.000264637      1.74179 
         950      2.25333 -7.62629e-05    0.0002938      1.74179 
         950      2.61333 -4.45845e-05  0.000317612      1.74179 
         950            3 -1.07331e-05  0.000334722       1.7418 
        1000            0           -0           -0      0.82504 
        1000     0.013333 -3.21949e-05 -4.41093e-08      0.82504 
        1000     0.053333 -0.000160218 -7.41971e-07      0.82504 
        1000         0.12 -0.000269099  -3.8597e-06      0.82504 
        1000     0.213332 -0.000282336 -1.19207e-05      0.82504 
        1000     0.333332 -0.000196459 -2.67018e-05      0.82504 
        1000         0.48 -7.84122e-05  -4.7929e-05      0.82504 
        1000     0.653331 -1.07571e-06 -7.37323e-05     0.825039 
        1000     0.853332   7.0491e-06 -0.000102094     0.825039 
        1000         1.08 -3.45985e-05 -0.000131341     0.825039 
        1000      1.33333 -7.57241e-05 -0.000159495     0.825039 
        1000      1.61333 -7.41103e-05 -0.000184526     0.825039 
        1000         1.92 -4.16263e-05 -0.000205869      0.82504 
        1000      2.25333 -1.18511e-05 -0.000223819     0.825041 
        1000      2.61333  8.31734e-06 -0.000238006     0.825042 
        1000            3  2.71184e-05 -0.000247466     0.825044 
