Variables = x, y, u, v, p

Zone, I=416, F=POINT
         -50            0            0            0      238.623 
         -50     0.013333  0.000355232  6.31969e-08      238.623 
         -50     0.053333  0.000323349  1.22258e-07      238.623 
         -50         0.12  0.000317316  5.74634e-08      238.623 
         -50     0.213332   0.00032506 -2.79858e-07      238.623 
         -50     0.333332  0.000337036  -1.0785e-06      238.623 
         -50         0.48  0.000345275 -2.56141e-06      238.623 
         -50     0.653331  0.000347721 -3.34352e-06      238.623 
         -50     0.853332  0.000344395  -4.6632e-06      238.622 
         -50         1.08  0.000336413 -6.14477e-06      238.622 
         -50      1.33333  0.000325718 -7.09803e-06      238.621 
         -50      1.61333   0.00031348 -7.52365e-06      238.619 
         -50         1.92  0.000301543  -6.9891e-06      238.618 
         -50      2.25333   0.00030468 -3.69526e-06      238.616 
         -50      2.61333  0.000312495 -1.65464e-06      238.613 
         -50            3  0.000309072 -4.09283e-06       238.61 
         -25            0  6.98277e-19  2.01048e-23      232.136 
         -25     0.013333  0.000304803  1.99441e-08      232.136 
         -25     0.053333  0.000281009  8.95721e-08      232.136 
         -25         0.12   0.00027413  2.92848e-07      232.136 
         -25     0.213332  0.000271031   7.1225e-07      232.136 
         -25     0.333332  0.000267205  1.40087e-06      232.136 
         -25         0.48  0.000262547  2.36727e-06      232.136 
         -25     0.653331  0.000260705  3.60042e-06      232.136 
         -25     0.853332  0.000262479  5.03916e-06      232.135 
         -25         1.08  0.000265569   6.4732e-06      232.135 
         -25      1.33333  0.000268935  7.64913e-06      232.135 
         -25      1.61333  0.000271989  8.53451e-06      232.135 
         -25         1.92  0.000270827  8.58059e-06      232.134 
         -25      2.25333  0.000266777  8.06552e-06      232.134 
         -25      2.61333  0.000264241  7.88053e-06      232.133 
         -25            3  0.000264508   8.7351e-06      232.132 
           0            0            0            0      225.929 
           0     0.013333  0.000853208 -0.000573895      225.936 
           0     0.053333  0.000581307 -0.000300239      225.949 
           0         0.12   0.00046463 -0.000215754      225.964 
           0     0.213332  0.000404483 -0.000166426       225.98 
           0     0.333332  0.000366006  -0.00013506      225.996 
           0         0.48  0.000336037  -0.00011102      226.012 
           0     0.653331  0.000316579 -9.18603e-05      226.028 
           0     0.853332  0.000304046 -7.60654e-05      226.045 
           0         1.08  0.000293574 -6.29149e-05       226.06 
           0      1.33333  0.000284315 -5.20356e-05      226.076 
           0      1.61333  0.000278546 -4.31101e-05      226.091 
           0         1.92  0.000276238 -3.61969e-05      226.105 
           0      2.25333  0.000272788 -3.13689e-05      226.119 
           0      2.61333  0.000262657 -2.85441e-05      226.133 
           0            3  0.000250124 -2.63994e-05      226.146 
          20            0  0.000398657 -7.34779e-05      222.052 
          20     0.013333   0.00040877 -7.39844e-05      222.052 
          20     0.053333  0.000440603 -7.55187e-05      222.051 
          20         0.12  0.000497991 -7.81759e-05      222.051 
          20     0.213332  0.000584059 -8.22909e-05       222.05 
          20     0.333332  0.000694002 -8.86661e-05       222.05 
          20         0.48  0.000800883 -9.85957e-05      222.049 
          20     0.653331  0.000862431 -0.000112799      222.048 
          20     0.853332   0.00085314 -0.000130335      222.047 
          20         1.08  0.000779062 -0.000148294      222.045 
          20      1.33333  0.000662785 -0.000162958      222.043 
          20      1.61333  0.000528746 -0.000171346      222.041 
          20         1.92  0.000394513 -0.000172111      222.039 
          20      2.25333  0.000284302 -0.000165006      222.036 
          20      2.61333  0.000209798 -0.000152521      222.033 
          20            3  0.000157135 -0.000139338      222.029 
          40            0  3.16932e-19  8.82837e-24      217.592 
          40     0.013333  0.000261596 -1.92521e-07      217.592 
          40     0.053333  0.000214071 -2.76488e-06      217.592 
          40         0.12  0.000240019 -1.07794e-05      217.592 
          40     0.213332  0.000319365  -2.4667e-05      217.592 
          40     0.333332  0.000421312 -4.42834e-05      217.592 
          40         0.48  0.000514421 -7.31651e-05      217.592 
          40     0.653331  0.000551005 -0.000116532      217.592 
          40     0.853332  0.000540922 -0.000171688      217.592 
          40         1.08  0.000476755 -0.000231166      217.592 
          40      1.33333  0.000363234 -0.000288324      217.592 
          40      1.61333  0.000270681 -0.000333707      217.591 
          40         1.92  0.000198763  -0.00036064      217.591 
          40      2.25333  0.000162618 -0.000368304      217.591 
          40      2.61333  0.000152139 -0.000358899       217.59 
          40            3  0.000150524 -0.000336684      217.589 
          60            0           -0           -0      213.109 
          60     0.013333  0.000134212  4.67328e-07      213.109 
          60     0.053333  -0.00034802  6.31859e-06      213.109 
          60         0.12  -0.00104629  2.39017e-05      213.109 
          60     0.213332  -0.00166208  4.94731e-05      213.109 
          60     0.333332  -0.00196073  7.05932e-05      213.109 
          60         0.48  -0.00200675  8.15409e-05      213.109 
          60     0.653331   -0.0018974  9.28113e-05      213.109 
          60     0.853332  -0.00156908  0.000121074      213.109 
          60         1.08  -0.00111065  0.000162739      213.109 
          60      1.33333 -0.000712039  0.000199405      213.109 
          60      1.61333 -0.000326074  0.000222208      213.109 
          60         1.92  0.000109253  0.000230581      213.109 
          60      2.25333  0.000446071  0.000225139      213.109 
          60      2.61333  0.000655465  0.000207418      213.109 
          60            3   0.00077019  0.000182408      213.109 
          80            0            0            0      208.676 
          80     0.013333  0.000130426  2.07563e-07      208.676 
          80     0.053333 -0.000296401  2.49876e-06      208.676 
          80         0.12 -0.000807406  7.58949e-06      208.676 
          80     0.213332  -0.00118238  1.02566e-05      208.676 
          80     0.333332  -0.00133795  3.37007e-06      208.676 
          80         0.48  -0.00138792 -1.46853e-05      208.676 
          80     0.653331  -0.00141485 -3.65572e-05      208.676 
          80     0.853332  -0.00125465 -4.45508e-05      208.676 
          80         1.08 -0.000769643 -2.60371e-05      208.676 
          80      1.33333 -0.000292253  5.84764e-06      208.676 
          80      1.61333  -5.0613e-06  3.18262e-05      208.676 
          80         1.92  0.000267783  5.23545e-05      208.676 
          80      2.25333   0.00047437  6.76473e-05      208.676 
          80      2.61333  0.000600715   7.6579e-05      208.676 
          80            3  0.000668443   8.1182e-05      208.676 
         100            0  3.08538e-19  1.64531e-25      204.257 
         100     0.013333  0.000251578  2.51056e-08      204.257 
         100     0.053333  0.000160337  2.91565e-07      204.257 
         100         0.12  6.53187e-05  8.89386e-07      204.257 
         100     0.213332 -1.65481e-05  1.43976e-06      204.257 
         100     0.333332 -7.80868e-05  1.51391e-06      204.257 
         100         0.48 -0.000127414  7.63579e-07      204.257 
         100     0.653331 -0.000169849 -7.79915e-07      204.257 
         100     0.853332 -0.000168861 -5.38587e-07      204.257 
         100         1.08 -6.19837e-05  6.07281e-06      204.257 
         100      1.33333  6.24566e-05  1.67857e-05      204.257 
         100      1.61333  0.000118857  2.48277e-05      204.257 
         100         1.92  0.000190433   3.1121e-05      204.257 
         100      2.25333  0.000259785  3.64894e-05      204.257 
         100      2.61333  0.000308006  4.01088e-05      204.257 
         100            3  0.000333611  4.19253e-05      204.257 
         150            0            0            0      193.226 
         150     0.013333  0.000188019   3.0066e-08      193.226 
         150     0.053333 -6.11808e-05  2.21545e-07      193.226 
         150         0.12  -0.00032007 -4.06084e-07      193.226 
         150     0.213332 -0.000479576 -5.00372e-06      193.226 
         150     0.333332 -0.000514932 -1.67424e-05      193.226 
         150         0.48  -0.00049225  -3.6109e-05      193.226 
         150     0.653331 -0.000470946 -6.07267e-05      193.226 
         150     0.853332 -0.000435113 -8.59894e-05      193.226 
         150         1.08 -0.000334662 -0.000107344      193.226 
         150      1.33333  -0.00019126 -0.000123663      193.226 
         150      1.61333 -4.68967e-05 -0.000136287      193.226 
         150         1.92  0.000103392 -0.000143762      193.226 
         150      2.25333  0.000237184  -0.00014504      193.226 
         150      2.61333  0.000340922 -0.000140966      193.226 
         150            3  0.000410981 -0.000132592      193.226 
         200            0            0            0      182.204 
         200     0.013333  0.000375063 -1.76093e-08      182.204 
         200     0.053333  0.000603282 -7.03366e-08      182.204 
         200         0.12  0.000879899   9.1533e-07      182.204 
         200     0.213332   0.00105838  6.11013e-06      182.204 
         200     0.333332   0.00108577  1.90955e-05      182.204 
         200         0.48   0.00102076  4.12915e-05      182.204 
         200     0.653331  0.000950532  7.14295e-05      182.204 
         200     0.853332   0.00089951  0.000106017      182.204 
         200         1.08  0.000824423  0.000140323      182.204 
         200      1.33333  0.000704304  0.000170981      182.204 
         200      1.61333  0.000566184  0.000197236      182.204 
         200         1.92  0.000421051  0.000216903      182.204 
         200      2.25333  0.000286188   0.00022815      182.204 
         200      2.61333  0.000173127  0.000230657      182.203 
         200            3  8.78331e-05  0.000224831      182.203 
         250            0           -0           -0      171.183 
         250     0.013333  8.81876e-05 -1.18388e-07      171.183 
         250     0.053333 -0.000377685 -2.07822e-06      171.183 
         250         0.12 -0.000787123 -1.13286e-05      171.183 
         250     0.213332 -0.000901836 -3.61703e-05      171.183 
         250     0.333332 -0.000715903 -8.28278e-05      171.183 
         250         0.48 -0.000420446 -0.000151494      171.183 
         250     0.653331 -0.000203111 -0.000237817      171.183 
         250     0.853332 -0.000122996 -0.000335693      171.183 
         250         1.08  -0.00010767 -0.000437394      171.183 
         250      1.33333 -5.80151e-05 -0.000534314      171.183 
         250      1.61333  3.64936e-05 -0.000619805      171.183 
         250         1.92  0.000134618 -0.000686892      171.183 
         250      2.25333  0.000230065 -0.000729666      171.183 
         250      2.61333  0.000314156 -0.000745457      171.183 
         250            3  0.000379303 -0.000734287      171.183 
         300            0            0            0      160.165 
         300     0.013333  0.000287065  4.37247e-07      160.165 
         300     0.053333   0.00016786  6.50349e-06      160.165 
         300         0.12 -0.000240728  2.88805e-05      160.165 
         300     0.213332 -0.000920219  7.53013e-05      160.165 
         300     0.333332  -0.00159637  0.000143819      160.165 
         300         0.48  -0.00202159  0.000225776      160.165 
         300     0.653331  -0.00214198  0.000314413      160.165 
         300     0.853332  -0.00200932   0.00040821      160.165 
         300         1.08  -0.00169961  0.000505834      160.165 
         300      1.33333  -0.00132939  0.000601245      160.165 
         300      1.61333 -0.000968382  0.000685574      160.165 
         300         1.92 -0.000575099  0.000751434      160.165 
         300      2.25333 -0.000187546  0.000793283      160.165 
         300      2.61333  0.000168146  0.000807559      160.165 
         300            3  0.000472762  0.000794006      160.165 
         350            0           -0           -0      149.151 
         350     0.013333  0.000675807 -1.31457e-07      149.151 
         350     0.053333   0.00169762 -1.29886e-06      149.151 
         350         0.12   0.00293994 -1.44446e-06      149.151 
         350     0.213332   0.00384076  9.80254e-06      149.151 
         350     0.333332   0.00412397  4.65258e-05      149.151 
         350         0.48   0.00395737   0.00011562      149.151 
         350     0.653331   0.00367598  0.000212702      149.151 
         350     0.853332    0.0034348  0.000326145      149.151 
         350         1.08   0.00314856  0.000442106      149.151 
         350      1.33333    0.0027065  0.000549454      149.151 
         350      1.61333   0.00214892  0.000643725      149.151 
         350         1.92   0.00154674  0.000721037      149.151 
         350      2.25333  0.000939439  0.000775387      149.151 
         350      2.61333  0.000365132     0.000803      149.151 
         350            3  -0.00012948   0.00080217      149.151 
         400            0            0            0      138.138 
         400     0.013333  0.000130079 -4.99592e-07      138.138 
         400     0.053333 -0.000134988 -7.55666e-06      138.138 
         400         0.12 -9.69904e-05 -3.44257e-05      138.138 
         400     0.213332  0.000370431 -9.27013e-05      138.138 
         400     0.333332   0.00102702 -0.000183762      138.138 
         400         0.48   0.00154461 -0.000300196      138.138 
         400     0.653331   0.00176614 -0.000434818      138.138 
         400     0.853332   0.00167722 -0.000585244      138.138 
         400         1.08   0.00135567 -0.000748121      138.138 
         400      1.33333   0.00101243 -0.000911284      138.138 
         400      1.61333    0.0007995  -0.00105863      138.138 
         400         1.92   0.00061728  -0.00117974      138.138 
         400      2.25333  0.000437665  -0.00126674      138.138 
         400      2.61333   0.00026705  -0.00131291      138.138 
         400            3  0.000116471  -0.00131475      138.138 
         450            0            0            0      127.126 
         450     0.013333  0.000296701  1.89689e-07      127.126 
         450     0.053333  0.000266355  2.84578e-06      127.126 
         450         0.12  0.000113968  1.28569e-05      127.126 
         450     0.213332  -0.00019177  3.44238e-05      127.126 
         450     0.333332 -0.000546159  6.79408e-05      127.126 
         450         0.48 -0.000817332  0.000110236      127.126 
         450     0.653331 -0.000947539  0.000157696      127.126 
         450     0.853332 -0.000948915  0.000208528      127.126 
         450         1.08 -0.000850426  0.000262237      127.126 
         450      1.33333 -0.000685688  0.000317705      127.126 
         450      1.61333 -0.000498715  0.000371691      127.126 
         450         1.92 -0.000308701  0.000419389      127.126 
         450      2.25333 -0.000115263  0.000457003      127.126 
         450      2.61333  7.70986e-05  0.000481378      127.126 
         450            3  0.000254037  0.000490508      127.126 
         500            0            0            0      116.118 
         500     0.013333  0.000328028 -1.95114e-07      116.118 
         500     0.053333  0.000486844 -2.80934e-06      116.118 
         500         0.12  0.000820122 -1.18801e-05      116.118 
         500     0.213332   0.00123164  -2.9155e-05      116.118 
         500     0.333332   0.00156034 -5.20188e-05      116.118 
         500         0.48    0.0017172 -7.60836e-05      116.118 
         500     0.653331   0.00172862 -9.92429e-05      116.118 
         500     0.853332   0.00164477 -0.000122825      116.118 
         500         1.08   0.00147753 -0.000149403      116.118 
         500      1.33333   0.00125211 -0.000178876      116.118 
         500      1.61333   0.00103205 -0.000207372      116.118 
         500         1.92  0.000823901  -0.00023147      116.118 
         500      2.25333  0.000612102  -0.00024967      116.118 
         500      2.61333  0.000400827 -0.000260763      116.118 
         500            3   0.00020771 -0.000263775      116.118 
         550            0            0            0       105.11 
         550     0.013333  0.000123655  1.89938e-07       105.11 
         550     0.053333 -0.000350816  2.61334e-06       105.11 
         550         0.12  -0.00100921  1.01895e-05       105.11 
         550     0.213332  -0.00163979  2.19904e-05       105.11 
         550     0.333332  -0.00202522   3.2218e-05       105.11 
         550         0.48  -0.00211952  3.49002e-05       105.11 
         550     0.653331  -0.00203298  2.88079e-05       105.11 
         550     0.853332  -0.00187279  1.75612e-05       105.11 
         550         1.08  -0.00165639  6.20221e-06       105.11 
         550      1.33333  -0.00137778 -2.70546e-06       105.11 
         550      1.61333  -0.00107074 -1.00668e-05       105.11 
         550         1.92 -0.000755847 -1.73498e-05       105.11 
         550      2.25333 -0.000428191 -2.43344e-05       105.11 
         550      2.61333  -9.5534e-05 -3.05289e-05       105.11 
         550            3  0.000219573 -3.55798e-05       105.11 
         600            0            0            0       94.108 
         600     0.013333  0.000543183  -1.4153e-07       94.108 
         600     0.053333   0.00124135 -1.73493e-06       94.108 
         600         0.12   0.00216719 -5.24772e-06       94.108 
         600     0.213332   0.00294634 -5.86909e-06       94.108 
         600     0.333332   0.00332417   5.1179e-06       94.108 
         600         0.48   0.00333522  3.36249e-05       94.108 
         600     0.653331   0.00319397  7.86415e-05       94.108 
         600     0.853332   0.00304846  0.000133625       94.108 
         600         1.08   0.00286737  0.000189323       94.108 
         600      1.33333   0.00255359  0.000238059       94.108 
         600      1.61333    0.0021341  0.000278572       94.108 
         600         1.92   0.00170307  0.000313431       94.108 
         600      2.25333   0.00126114  0.000341727       94.108 
         600      2.61333   0.00080901  0.000361318      94.1079 
         600            3  0.000372805  0.000370421      94.1079 
         650            0           -0           -0       83.106 
         650     0.013333  0.000196558   4.9058e-08       83.106 
         650     0.053333 -5.45081e-05  6.26321e-07       83.106 
         650         0.12 -0.000374199   2.1604e-06       83.106 
         650     0.213332 -0.000681775  3.91632e-06       83.106 
         650     0.333332 -0.000913819  4.39383e-06       83.106 
         650         0.48  -0.00106358  2.50959e-06       83.106 
         650     0.653331  -0.00116135 -2.07958e-06       83.106 
         650     0.853332  -0.00123531 -8.93635e-06       83.106 
         650         1.08  -0.00126696 -1.58016e-05       83.106 
         650      1.33333  -0.00118909 -1.84858e-05       83.106 
         650      1.61333 -0.000986818 -1.46252e-05       83.106 
         650         1.92 -0.000746914 -6.64086e-06       83.106 
         650      2.25333 -0.000500595  2.95529e-06      83.1061 
         650      2.61333 -0.000248663  1.32209e-05      83.1061 
         650            3   4.0783e-06  2.38152e-05      83.1061 
         700            0           -0           -0      72.1071 
         700     0.013333  9.89749e-05  1.68885e-07      72.1071 
         700     0.053333 -0.000442876  2.32956e-06      72.1071 
         700         0.12  -0.00119702  9.09888e-06      72.1071 
         700     0.213332  -0.00193407  1.95421e-05      72.1071 
         700     0.333332  -0.00240959  2.78979e-05      72.1071 
         700         0.48  -0.00255035  2.76713e-05      72.1071 
         700     0.653331  -0.00246684  1.66208e-05      72.1071 
         700     0.853332  -0.00229628 -2.35249e-06      72.1071 
         700         1.08  -0.00207901  -2.3914e-05      72.1071 
         700      1.33333  -0.00180118 -4.44292e-05      72.1071 
         700      1.61333  -0.00148683 -6.40659e-05      72.1071 
         700         1.92  -0.00116133 -8.40583e-05      72.1071 
         700      2.25333 -0.000811101 -0.000103322      72.1071 
         700      2.61333 -0.000438873 -0.000120564      72.1072 
         700            3 -6.68875e-05 -0.000134787      72.1072 
         750            0           -0           -0      61.1118 
         750     0.013333  0.000232987 -2.48547e-07      61.1118 
         750     0.053333  0.000168152 -3.73455e-06      61.1118 
         750         0.12  0.000303865 -1.69371e-05      61.1118 
         750     0.213332   0.00069211 -4.56737e-05      61.1118 
         750     0.333332   0.00120129 -9.11269e-05      61.1118 
         750         0.48   0.00163952 -0.000149887      61.1118 
         750     0.653331   0.00190457 -0.000217653      61.1118 
         750     0.853332    0.0019876 -0.000292537      61.1118 
         750         1.08    0.0018998 -0.000375119      61.1118 
         750      1.33333   0.00167234 -0.000464822      61.1118 
         750      1.61333   0.00140232 -0.000556511      61.1118 
         750         1.92   0.00117185 -0.000642503      61.1118 
         750      2.25333  0.000952253 -0.000717587      61.1118 
         750      2.61333  0.000722866 -0.000777469      61.1118 
         750            3  0.000491563  -0.00081826      61.1118 
         800            0           -0           -0      50.1172 
         800     0.013333  0.000410336 -1.26165e-07      50.1172 
         800     0.053333  0.000775349 -1.78587e-06      50.1172 
         800         0.12   0.00135484 -7.32979e-06      50.1172 
         800     0.213332   0.00198374 -1.71203e-05      50.1172 
         800     0.333332   0.00246787 -2.80758e-05      50.1172 
         800         0.48   0.00270687 -3.55599e-05      50.1172 
         800     0.653331   0.00274017 -3.66693e-05      50.1172 
         800     0.853332   0.00266345 -3.16535e-05      50.1172 
         800         1.08   0.00253309 -2.29533e-05      50.1172 
         800      1.33333   0.00235169 -1.31574e-05      50.1172 
         800      1.61333   0.00211221 -3.82413e-06      50.1172 
         800         1.92    0.0018218  4.61704e-06      50.1172 
         800      2.25333   0.00149436  1.22775e-05      50.1172 
         800      2.61333   0.00114299  1.90823e-05      50.1172 
         800            3  0.000779722  2.49046e-05      50.1171 
         850            0           -0           -0      39.1237 
         850     0.013333  0.000485661   7.1842e-08      39.1237 
         850     0.053333  0.000980443  1.26784e-06      39.1237 
         850         0.12   0.00154354  7.04763e-06      39.1237 
         850     0.213332   0.00189278  2.33119e-05      39.1237 
         850     0.333332    0.0019125  5.58602e-05      39.1237 
         850         0.48   0.00169727  0.000107011      39.1237 
         850     0.653331   0.00143357  0.000174905      39.1237 
         850     0.853332   0.00125273  0.000255685      39.1237 
         850         1.08   0.00118111  0.000345269      39.1237 
         850      1.33333   0.00115806  0.000439039      39.1237 
         850      1.61333   0.00109628  0.000531374      39.1237 
         850         1.92  0.000969475  0.000617844      39.1237 
         850      2.25333  0.000814532  0.000694705      39.1237 
         850      2.61333  0.000650172  0.000758348      39.1237 
         850            3  0.000479036  0.000804995      39.1236 
         900            0            0            0      28.1313 
         900     0.013333  0.000293802  2.42922e-07      28.1313 
         900     0.053333  0.000230332  3.65362e-06      28.1313 
         900         0.12 -2.71249e-05  1.65796e-05      28.1313 
         900     0.213332 -0.000523877   4.4646e-05      28.1313 
         900     0.333332  -0.00111021  8.86114e-05      28.1313 
         900         0.48  -0.00157851  0.000144315      28.1313 
         900     0.653331  -0.00182424  0.000206725      28.1313 
         900     0.853332  -0.00186047  0.000273572      28.1313 
         900         1.08  -0.00173302   0.00034518      28.1313 
         900      1.33333  -0.00149464  0.000421164      28.1313 
         900      1.61333  -0.00122292  0.000498149      28.1313 
         900         1.92 -0.000973141  0.000571196      28.1313 
         900      2.25333 -0.000724696  0.000636416      28.1313 
         900      2.61333 -0.000463778  0.000690451      28.1313 
         900            3 -0.000193642  0.000729937      28.1313 
         950            0           -0           -0      17.1413 
         950     0.013333  0.000127875 -1.13605e-08      17.1413 
         950     0.053333 -0.000286676 -3.21207e-07      17.1413 
         950         0.12 -0.000758118 -2.47644e-06      17.1413 
         950     0.213332  -0.00110674 -9.90524e-06      17.1413 
         950     0.333332  -0.00124241 -2.63756e-05      17.1413 
         950         0.48  -0.00121549 -5.34941e-05      17.1413 
         950     0.653331  -0.00114284 -9.01424e-05      17.1413 
         950     0.853332  -0.00111035 -0.000133881      17.1413 
         950         1.08  -0.00112372 -0.000181555      17.1413 
         950      1.33333   -0.0011102 -0.000228765      17.1413 
         950      1.61333 -0.000994095 -0.000270913      17.1413 
         950         1.92 -0.000799612 -0.000306531      17.1413 
         950      2.25333 -0.000588955 -0.000336533      17.1413 
         950      2.61333 -0.000377977 -0.000360105      17.1413 
         950            3 -0.000157761 -0.000375572      17.1413 
        1000            0           -0           -0      6.15319 
        1000     0.013333  0.000281845 -8.77049e-09      6.15319 
        1000     0.053333  0.000265909 -9.36311e-08      6.15319 
        1000         0.12   0.00026591 -1.98726e-07      6.15319 
        1000     0.213332  0.000264302  7.53997e-08      6.15319 
        1000     0.333332  0.000260984  1.09264e-06      6.15319 
        1000         0.48  0.000270305   2.6267e-06      6.15319 
        1000     0.653331  0.000304632  4.01112e-06      6.15319 
        1000     0.853332  0.000359667  4.60869e-06      6.15319 
        1000         1.08  0.000413073  3.59526e-06      6.15319 
        1000      1.33333  0.000426552 -4.52097e-07      6.15319 
        1000      1.61333  0.000383799 -8.29057e-06      6.15319 
        1000         1.92  0.000329726 -1.82238e-05      6.15319 
        1000      2.25333  0.000291331 -2.82425e-05      6.15319 
        1000      2.61333  0.000264777 -3.74012e-05      6.15319 
        1000            3   0.00023891 -4.55263e-05      6.15319 
