Variables = x, y, u, v, p

Zone, I=416, F=POINT
         -50            0            0            0     -84.5188 
         -50     0.013333  0.000118643 -5.43071e-09     -84.5188 
         -50     0.053333  0.000103305  9.05999e-08     -84.5188 
         -50         0.12  9.89239e-05  2.45547e-07     -84.5188 
         -50     0.213332  9.79245e-05   3.2636e-07     -84.5187 
         -50     0.333332  9.88291e-05  6.94383e-07     -84.5186 
         -50         0.48  9.99147e-05  1.27854e-06     -84.5185 
         -50     0.653331  0.000101178  2.44174e-07     -84.5182 
         -50     0.853332   0.00010242  1.25393e-06     -84.5178 
         -50         1.08   0.00010384  1.58078e-06     -84.5172 
         -50      1.33333  0.000104038  1.56569e-06     -84.5163 
         -50      1.61333  0.000101985  1.68657e-06     -84.5152 
         -50         1.92  0.000101813   2.6666e-06     -84.5137 
         -50      2.25333  0.000102732  2.04575e-06     -84.5119 
         -50      2.61333  0.000104851   2.4688e-06     -84.5095 
         -50            3  0.000109355  8.15714e-06     -84.5065 
         -25            0   9.4946e-20 -6.69357e-24     -81.1833 
         -25     0.013333   8.5076e-05  3.24806e-09     -81.1833 
         -25     0.053333  6.86919e-05  9.57687e-08     -81.1833 
         -25         0.12  5.81661e-05  3.26276e-07     -81.1833 
         -25     0.213332  5.12999e-05  6.14487e-07     -81.1833 
         -25     0.333332  4.99864e-05  7.44675e-07     -81.1833 
         -25         0.48  5.21836e-05  5.65401e-07     -81.1832 
         -25     0.653331  5.50982e-05  2.41286e-07     -81.1831 
         -25     0.853332  5.77935e-05 -5.13954e-07      -81.183 
         -25         1.08   6.1634e-05 -1.38031e-06     -81.1827 
         -25      1.33333  6.84259e-05 -2.14806e-06     -81.1824 
         -25      1.61333  7.67985e-05  -2.7747e-06      -81.182 
         -25         1.92  8.51179e-05 -3.48009e-06     -81.1814 
         -25      2.25333  9.13876e-05 -3.06183e-06     -81.1807 
         -25      2.61333  9.52649e-05 -2.30624e-06     -81.1798 
         -25            3  9.61381e-05 -3.19549e-06     -81.1787 
           0            0            0            0     -78.4514 
           0     0.013333   0.00032661 -0.000159558     -78.4537 
           0     0.053333  0.000159102 -8.06997e-05     -78.4583 
           0         0.12  0.000136732 -4.37726e-05     -78.4634 
           0     0.213332  0.000142326 -3.48592e-05     -78.4688 
           0     0.333332   0.00014932  -3.0877e-05     -78.4743 
           0         0.48  0.000149836 -2.89066e-05     -78.4797 
           0     0.653331  0.000144781 -2.85017e-05      -78.485 
           0     0.853332  0.000134705 -2.91147e-05     -78.4902 
           0         1.08  0.000122665  -3.0122e-05     -78.4951 
           0      1.33333  0.000110701 -3.09585e-05     -78.4998 
           0      1.61333  9.80803e-05 -3.11651e-05     -78.5043 
           0         1.92  8.46384e-05 -3.07159e-05     -78.5085 
           0      2.25333  7.27264e-05 -2.92571e-05     -78.5125 
           0      2.61333  6.87526e-05 -2.58905e-05     -78.5162 
           0            3  7.13598e-05 -2.25382e-05     -78.5196 
          20            0  7.09447e-05 -1.25629e-05     -76.7759 
          20     0.013333  7.75026e-05 -1.32311e-05     -76.7759 
          20     0.053333  9.68853e-05 -1.53374e-05     -76.7759 
          20         0.12  0.000127642 -1.91818e-05     -76.7758 
          20     0.213332  0.000165733  -2.5226e-05     -76.7758 
          20     0.333332  0.000203851 -3.39853e-05     -76.7757 
          20         0.48  0.000232571  -4.5672e-05     -76.7756 
          20     0.653331  0.000245207 -6.02657e-05     -76.7755 
          20     0.853332  0.000241933 -7.71437e-05     -76.7754 
          20         1.08  0.000229852 -9.48613e-05     -76.7752 
          20      1.33333  0.000215703 -0.000111388      -76.775 
          20      1.61333  0.000196668 -0.000124798     -76.7747 
          20         1.92  0.000175202 -0.000133518     -76.7743 
          20      2.25333  0.000156112 -0.000136806     -76.7739 
          20      2.61333  0.000144035 -0.000135292     -76.7735 
          20            3  0.000135209 -0.000129568     -76.7729 
          40            0           -0           -0     -75.1098 
          40     0.013333 -0.000110353  6.50581e-07     -75.1098 
          40     0.053333 -0.000724025  9.31174e-06     -75.1098 
          40         0.12  -0.00174658  3.83761e-05     -75.1098 
          40     0.213332  -0.00282273  9.17177e-05     -75.1098 
          40     0.333332  -0.00346669  0.000165016     -75.1097 
          40         0.48  -0.00357265  0.000251078     -75.1096 
          40     0.653331  -0.00365706  0.000322778     -75.1095 
          40     0.853332  -0.00369888  0.000366468     -75.1094 
          40         1.08  -0.00320518  0.000406857     -75.1091 
          40      1.33333  -0.00231422   0.00044408     -75.1088 
          40      1.61333  -0.00130298  0.000466303     -75.1083 
          40         1.92 -0.000344035  0.000467852     -75.1077 
          40      2.25333  0.000415859  0.000448332      -75.107 
          40      2.61333  0.000892627  0.000412324      -75.106 
          40            3   0.00110638  0.000368617      -75.105 
          60            0           -0           -0     -73.4395 
          60     0.013333  3.60264e-05  1.02166e-06     -73.4395 
          60     0.053333 -0.000273267  1.47263e-05     -73.4395 
          60         0.12  -0.00112155  6.20053e-05     -73.4395 
          60     0.213332  -0.00226877  0.000150964     -73.4395 
          60     0.333332  -0.00318666  0.000268917     -73.4395 
          60         0.48  -0.00360709  0.000401766     -73.4395 
          60     0.653331  -0.00349489  0.000553584     -73.4395 
          60     0.853332   -0.0029189  0.000735649     -73.4395 
          60         1.08  -0.00217533  0.000935756     -73.4394 
          60      1.33333  -0.00148295   0.00112325     -73.4393 
          60      1.61333 -0.000835625    0.0012679     -73.4392 
          60         1.92 -9.12597e-05   0.00134738     -73.4391 
          60      2.25333  0.000437927   0.00135676     -73.4389 
          60      2.61333  0.000742951   0.00130431     -73.4387 
          60            3  0.000937369   0.00120991     -73.4385 
          80            0           -0           -0     -71.8428 
          80     0.013333  2.86772e-05  7.96838e-07     -71.8428 
          80     0.053333 -0.000226293  1.13211e-05     -71.8428 
          80         0.12 -0.000855037  4.66209e-05     -71.8428 
          80     0.213332  -0.00164658   0.00011041     -71.8428 
          80     0.333332  -0.00222161  0.000191012     -71.8428 
          80         0.48   -0.0024274  0.000278364     -71.8428 
          80     0.653331  -0.00220856  0.000379265     -71.8428 
          80     0.853332  -0.00147152  0.000507135     -71.8428 
          80         1.08 -0.000574977  0.000646962     -71.8428 
          80      1.33333 -8.70658e-05  0.000763487     -71.8427 
          80      1.61333  0.000103742  0.000842695     -71.8427 
          80         1.92  0.000312256  0.000881587     -71.8426 
          80      2.25333  0.000465194  0.000878451     -71.8425 
          80      2.61333  0.000547478  0.000837748     -71.8424 
          80            3   0.00056557  0.000770924     -71.8422 
         100            0           -0           -0     -70.2822 
         100     0.013333 -2.49474e-05   3.3606e-07     -70.2822 
         100     0.053333 -0.000301335  4.49776e-06     -70.2822 
         100         0.12 -0.000710215  1.68516e-05     -70.2822 
         100     0.213332  -0.00107515  3.53106e-05     -70.2822 
         100     0.333332  -0.00126356  5.31319e-05     -70.2822 
         100         0.48  -0.00130222  6.78444e-05     -70.2822 
         100     0.653331  -0.00120369  8.61026e-05     -70.2822 
         100     0.853332  -0.00086157  0.000119263     -70.2822 
         100         1.08 -0.000406623  0.000163337     -70.2822 
         100      1.33333 -0.000202897  0.000197848     -70.2821 
         100      1.61333 -0.000104793  0.000217929     -70.2821 
         100         1.92  8.62826e-05  0.000230136      -70.282 
         100      2.25333  0.000245146  0.000233563      -70.282 
         100      2.61333  0.000337877   0.00022725     -70.2819 
         100            3  0.000386085  0.000213268     -70.2818 
         150            0            0            0     -66.4603 
         150     0.013333 -1.73798e-05  1.87809e-07     -66.4603 
         150     0.053333  -0.00026639   2.7096e-06     -66.4603 
         150         0.12 -0.000664658  1.13448e-05     -66.4603 
         150     0.213332  -0.00108743  2.69148e-05     -66.4603 
         150     0.333332  -0.00136459  4.49169e-05     -66.4603 
         150         0.48  -0.00144009  5.92052e-05     -66.4603 
         150     0.653331  -0.00137843  6.69177e-05     -66.4603 
         150     0.853332  -0.00125116   6.8674e-05     -66.4603 
         150         1.08  -0.00108541  6.55633e-05     -66.4603 
         150      1.33333  -0.00087931   5.8984e-05     -66.4603 
         150      1.61333 -0.000625576  5.01468e-05     -66.4603 
         150         1.92 -0.000332154  3.99187e-05     -66.4603 
         150      2.25333 -6.73687e-05  2.86139e-05     -66.4602 
         150      2.61333  0.000143016  1.65596e-05     -66.4602 
         150            3  0.000297885  5.09494e-06     -66.4602 
         200            0           -0           -0     -62.6862 
         200     0.013333  0.000372305 -8.04342e-08     -62.6862 
         200     0.053333   0.00116586 -5.71653e-07     -62.6862 
         200         0.12   0.00203192  1.78104e-06     -62.6862 
         200     0.213332    0.0024772   1.8812e-05     -62.6862 
         200     0.333332   0.00232354  6.55372e-05     -62.6862 
         200         0.48   0.00181822  0.000147641     -62.6862 
         200     0.653331   0.00130557  0.000258122     -62.6862 
         200     0.853332    0.0009402  0.000385647     -62.6862 
         200         1.08  0.000717699  0.000522206     -62.6862 
         200      1.33333  0.000547486  0.000659005     -62.6862 
         200      1.61333  0.000338995  0.000784059     -62.6862 
         200         1.92   0.00011948  0.000884025     -62.6862 
         200      2.25333 -8.15647e-05  0.000950101     -62.6863 
         200      2.61333 -0.000239741  0.000979047     -62.6863 
         200            3 -0.000342636  0.000971038     -62.6863 
         250            0  7.88406e-19 -9.00722e-26     -58.9274 
         250     0.013333  0.000977586 -1.46065e-07     -58.9274 
         250     0.053333   0.00330238 -2.06969e-07     -58.9274 
         250         0.12   0.00586412  1.15069e-05     -58.9274 
         250     0.213332   0.00740536  6.66444e-05     -58.9274 
         250     0.333332   0.00759069  0.000196904     -58.9274 
         250         0.48   0.00708448   0.00040784     -58.9274 
         250     0.653331   0.00663118  0.000678299     -58.9273 
         250     0.853332   0.00631409   0.00097139     -58.9273 
         250         1.08   0.00566468    0.0012449     -58.9274 
         250      1.33333   0.00451984   0.00147294     -58.9274 
         250      1.61333   0.00323144   0.00165731     -58.9274 
         250         1.92   0.00191374   0.00178888     -58.9275 
         250      2.25333  0.000669409   0.00185345     -58.9276 
         250      2.61333 -0.000407721   0.00184954     -58.9277 
         250            3  -0.00124749   0.00178009     -58.9278 
         300            0           -0           -0     -55.1755 
         300     0.013333  0.000690221  -4.7204e-07     -55.1755 
         300     0.053333   0.00240254 -5.80879e-06     -55.1755 
         300         0.12   0.00457949 -1.79831e-05     -55.1755 
         300     0.213332   0.00631248 -2.31486e-05     -55.1755 
         300     0.333332   0.00706619  2.59687e-06     -55.1755 
         300         0.48   0.00703598  7.30414e-05     -55.1755 
         300     0.653331    0.0067219  0.000182261     -55.1755 
         300     0.853332   0.00632802  0.000309739     -55.1755 
         300         1.08   0.00567776  0.000430918     -55.1755 
         300      1.33333   0.00467213  0.000530537     -55.1755 
         300      1.61333   0.00350978  0.000610769     -55.1756 
         300         1.92   0.00228623  0.000671905     -55.1756 
         300      2.25333   0.00109134  0.000708264     -55.1757 
         300      2.61333  5.04561e-06  0.000718647     -55.1758 
         300            3 -0.000894007   0.00070281     -55.1759 
         350            0            0            0     -51.4264 
         350     0.013333 -2.41728e-05 -8.86888e-07     -51.4264 
         350     0.053333  6.79762e-06 -1.31979e-05     -51.4264 
         350         0.12  0.000631837 -5.87215e-05     -51.4264 
         350     0.213332   0.00186261 -0.000153806     -51.4264 
         350     0.333332   0.00318032  -0.00029608     -51.4264 
         350         0.48   0.00407363 -0.000469838     -51.4264 
         350     0.653331   0.00439483 -0.000662534     -51.4264 
         350     0.853332   0.00419827 -0.000872124     -51.4264 
         350         1.08    0.0035944  -0.00109726     -51.4264 
         350      1.33333    0.0028562  -0.00132339     -51.4264 
         350      1.61333   0.00221069  -0.00152697     -51.4264 
         350         1.92   0.00155014  -0.00169085     -51.4264 
         350      2.25333  0.000888407  -0.00180305     -51.4264 
         350      2.61333  0.000264818  -0.00185437     -51.4265 
         350            3 -0.000278592  -0.00184149     -51.4265 
         400            0           -0           -0     -47.6799 
         400     0.013333 -0.000196636  7.58593e-07     -47.6799 
         400     0.053333   -0.0010711  1.09438e-05     -47.6799 
         400         0.12  -0.00260915  4.64008e-05     -47.6799 
         400     0.213332  -0.00443552  0.000114102     -47.6799 
         400     0.333332  -0.00590518   0.00020344     -47.6799 
         400         0.48  -0.00665572  0.000295784     -47.6799 
         400     0.653331  -0.00677782  0.000380618     -47.6799 
         400     0.853332  -0.00648354   0.00046047     -47.6799 
         400         1.08  -0.00585916  0.000542782     -47.6799 
         400      1.33333    -0.004981  0.000628729     -47.6799 
         400      1.61333   -0.0039875  0.000710154     -47.6799 
         400         1.92    -0.002908  0.000777754     -47.6798 
         400      2.25333  -0.00179127  0.000825599     -47.6798 
         400      2.61333 -0.000697946  0.000849059     -47.6797 
         400            3  0.000291419     0.000846     -47.6796 
         450            0  3.08718e-19  5.87707e-27     -43.9269 
         450     0.013333  0.000751036 -3.65006e-07     -43.9269 
         450     0.053333   0.00261246 -4.32391e-06     -43.9269 
         450         0.12   0.00495859 -1.19375e-05     -43.9269 
         450     0.213332   0.00681759 -8.38085e-06     -43.9269 
         450     0.333332   0.00760463  3.04988e-05     -43.9269 
         450         0.48    0.0075104  0.000118928     -43.9268 
         450     0.653331   0.00710566  0.000251472     -43.9268 
         450     0.853332   0.00670149  0.000408486     -43.9268 
         450         1.08   0.00616012  0.000565009     -43.9268 
         450      1.33333    0.0052821  0.000702713     -43.9269 
         450      1.61333   0.00419136  0.000819428     -43.9269 
         450         1.92   0.00305555  0.000917077     -43.9269 
         450      2.25333   0.00189655  0.000989513      -43.927 
         450      2.61333  0.000755106   0.00103117     -43.9271 
         450            3  -0.00028238   0.00103869     -43.9272 
         500            0           -0           -0     -40.1804 
         500     0.013333 -0.000397587 -3.14111e-07     -40.1804 
         500     0.053333  -0.00148888 -5.19452e-06     -40.1804 
         500         0.12  -0.00255933 -2.65281e-05     -40.1804 
         500     0.213332  -0.00307038  -8.0227e-05     -40.1804 
         500     0.333332  -0.00296356 -0.000176762     -40.1804 
         500         0.48   -0.0025759 -0.000315859     -40.1804 
         500     0.653331  -0.00227528 -0.000491141     -40.1804 
         500     0.853332  -0.00223933 -0.000695563     -40.1804 
         500         1.08  -0.00238115 -0.000917774     -40.1804 
         500      1.33333  -0.00238151  -0.00113716     -40.1804 
         500      1.61333  -0.00205956  -0.00133373     -40.1804 
         500         1.92  -0.00160838  -0.00149875     -40.1804 
         500      2.25333  -0.00112345  -0.00162468     -40.1803 
         500      2.61333 -0.000629168  -0.00170274     -40.1803 
         500            3 -0.000153456  -0.00172636     -40.1803 
         550            0           -0           -0     -36.4286 
         550     0.013333  0.000208544 -3.54624e-07     -36.4286 
         550     0.053333   0.00070371   -5.156e-06     -36.4286 
         550         0.12   0.00156435 -2.20489e-05     -36.4286 
         550     0.213332   0.00257328 -5.44292e-05     -36.4286 
         550     0.333332   0.00336807 -9.64508e-05     -36.4286 
         550         0.48   0.00373302 -0.000137642     -36.4286 
         550     0.653331   0.00371748 -0.000172148     -36.4286 
         550     0.853332    0.0034665 -0.000201457     -36.4286 
         550         1.08    0.0030868 -0.000228483     -36.4286 
         550      1.33333   0.00267449 -0.000251716     -36.4286 
         550      1.61333   0.00226657 -0.000268774     -36.4286 
         550         1.92   0.00180326 -0.000280329     -36.4287 
         550      2.25333   0.00128965 -0.000286105     -36.4287 
         550      2.61333  0.000757117 -0.000285272     -36.4287 
         550            3  0.000243344 -0.000277096     -36.4287 
         600            0            0            0     -32.6801 
         600     0.013333 -0.000392582  3.84732e-07     -32.6801 
         600     0.053333  -0.00165822  5.05523e-06     -32.6801 
         600         0.12  -0.00336259  1.80143e-05     -32.6801 
         600     0.213332  -0.00486482  3.28295e-05     -32.6801 
         600     0.333332  -0.00564516  3.31404e-05     -32.6801 
         600         0.48  -0.00570421  5.90957e-06     -32.6801 
         600     0.653331  -0.00541755 -4.82947e-05     -32.6801 
         600     0.853332  -0.00506606 -0.000116939     -32.6801 
         600         1.08   -0.0046077 -0.000182659     -32.6801 
         600      1.33333  -0.00391794 -0.000233962     -32.6801 
         600      1.61333  -0.00311265 -0.000273479       -32.68 
         600         1.92  -0.00234534 -0.000308763       -32.68 
         600      2.25333  -0.00157281 -0.000338965       -32.68 
         600      2.61333 -0.000785488 -0.000361161     -32.6799 
         600            3 -3.62246e-05  -0.00037325     -32.6799 
         650            0            0            0     -28.9243 
         650     0.013333  0.000512984 -3.42077e-07     -28.9243 
         650     0.053333   0.00178998 -4.52892e-06     -28.9243 
         650         0.12   0.00355528 -1.64383e-05     -28.9243 
         650     0.213332   0.00520287 -3.12361e-05     -28.9243 
         650     0.333332   0.00621783 -3.52017e-05     -28.9243 
         650         0.48   0.00653077 -1.60335e-05     -28.9243 
         650     0.653331    0.0064393  2.84655e-05     -28.9243 
         650     0.853332   0.00622487  9.04677e-05     -28.9243 
         650         1.08   0.00590064   0.00015612     -28.9242 
         650      1.33333   0.00531677   0.00021204     -28.9243 
         650      1.61333    0.0044788  0.000254002     -28.9243 
         650         1.92   0.00356986  0.000287231     -28.9243 
         650      2.25333   0.00262253   0.00031363     -28.9243 
         650      2.61333   0.00164414  0.000331798     -28.9244 
         650            3  0.000679009  0.000339929     -28.9244 
         700            0           -0           -0      -25.173 
         700     0.013333  0.000114595  2.22857e-07      -25.173 
         700     0.053333  0.000192643  3.33942e-06      -25.173 
         700         0.12  0.000125248  1.51561e-05      -25.173 
         700     0.213332 -0.000178157  4.12247e-05      -25.173 
         700     0.333332 -0.000639317  8.37223e-05      -25.173 
         700         0.48  -0.00109996  0.000140996      -25.173 
         700     0.653331  -0.00144551  0.000209629      -25.173 
         700     0.853332  -0.00163577  0.000287252      -25.173 
         700         1.08   -0.0016485  0.000374179      -25.173 
         700      1.33333  -0.00147197  0.000471272      -25.173 
         700      1.61333  -0.00118792  0.000574578      -25.173 
         700         1.92 -0.000924092  0.000674694      -25.173 
         700      2.25333 -0.000678804  0.000764078      -25.173 
         700      2.61333 -0.000432374  0.000836989      -25.173 
         700            3 -0.000187837  0.000888765      -25.173 
         750            0           -0           -0      -21.419 
         750     0.013333 -0.000247579  3.43739e-07      -21.419 
         750     0.053333  -0.00115164  4.81372e-06      -21.419 
         750         0.12  -0.00249224  1.93541e-05      -21.419 
         750     0.213332  -0.00387187   4.3726e-05      -21.419 
         750     0.333332  -0.00482874  6.83509e-05      -21.419 
         750         0.48  -0.00518362   8.1282e-05      -21.419 
         750     0.653331  -0.00510111  7.77637e-05      -21.419 
         750     0.853332  -0.00481717  6.25453e-05      -21.419 
         750         1.08  -0.00441177  4.48746e-05      -21.419 
         750      1.33333  -0.00388015  3.04629e-05      -21.419 
         750      1.61333  -0.00328464  1.79388e-05      -21.419 
         750         1.92  -0.00267668  4.17249e-06      -21.419 
         750      2.25333  -0.00202827  -1.0591e-05      -21.419 
         750      2.61333  -0.00133939 -2.51089e-05      -21.419 
         750            3 -0.000642812 -3.86088e-05     -21.4189 
         800            0  1.08656e-19  6.91678e-27       -17.66 
         800     0.013333  5.00027e-05 -4.82415e-07       -17.66 
         800     0.053333  0.000171953 -7.14581e-06       -17.66 
         800         0.12  0.000678463 -3.16505e-05       -17.66 
         800     0.213332   0.00155715 -8.26556e-05       -17.66 
         800     0.333332   0.00248894 -0.000158771       -17.66 
         800         0.48   0.00314573 -0.000251156       -17.66 
         800     0.653331   0.00343363 -0.000352601       -17.66 
         800     0.853332   0.00340896 -0.000463083       -17.66 
         800         1.08   0.00310143 -0.000587222       -17.66 
         800      1.33333   0.00256782 -0.000725159       -17.66 
         800      1.61333   0.00201272  -0.00086631       -17.66 
         800         1.92   0.00158773 -0.000996715       -17.66 
         800      2.25333   0.00119862  -0.00110904       -17.66 
         800      2.61333  0.000791807  -0.00119809       -17.66 
         800            3  0.000383502  -0.00125861       -17.66 
         850            0            0            0     -13.9031 
         850     0.013333   7.9109e-05  1.46074e-07     -13.9031 
         850     0.053333  9.38451e-05  2.14475e-06     -13.9031 
         850         0.12  3.35072e-05  9.34017e-06     -13.9031 
         850     0.213332 -0.000106967  2.37769e-05     -13.9031 
         850     0.333332 -0.000243642   4.4284e-05     -13.9031 
         850         0.48 -0.000307839  6.81069e-05     -13.9031 
         850     0.653331  -0.00030234   9.4235e-05     -13.9031 
         850     0.853332 -0.000245232  0.000124666     -13.9031 
         850         1.08 -0.000114758  0.000162597     -13.9031 
         850      1.33333  8.53248e-05     0.000208     -13.9031 
         850      1.61333  0.000246036  0.000254805     -13.9031 
         850         1.92  0.000283764  0.000295936     -13.9031 
         850      2.25333   0.00027414  0.000329297     -13.9031 
         850      2.61333  0.000264975  0.000354548     -13.9031 
         850            3  0.000249669  0.000370874     -13.9031 
         900            0  1.43164e-19 -3.13211e-26     -10.1444 
         900     0.013333  0.000288579 -1.75575e-07     -10.1444 
         900     0.053333  0.000937603 -2.35152e-06     -10.1444 
         900         0.12    0.0018387 -8.63633e-06     -10.1444 
         900     0.213332   0.00265575 -1.63308e-05     -10.1444 
         900     0.333332   0.00307977 -1.70867e-05     -10.1444 
         900         0.48   0.00305952  -2.8914e-06     -10.1444 
         900     0.653331   0.00279119  2.73998e-05     -10.1444 
         900     0.853332   0.00247749  6.76495e-05     -10.1444 
         900         1.08   0.00215924     0.000109     -10.1444 
         900      1.33333   0.00179418    0.0001458     -10.1444 
         900      1.61333   0.00142056  0.000179169     -10.1444 
         900         1.92    0.0011145  0.000212897     -10.1444 
         900      2.25333  0.000833356  0.000246511     -10.1445 
         900      2.61333   0.00054284  0.000277364     -10.1445 
         900            3  0.000246782  0.000302897     -10.1445 
         950            0   1.8352e-19  6.45542e-26     -6.38912 
         950     0.013333  0.000117442  6.91791e-07     -6.38912 
         950     0.053333  3.33758e-05  1.05069e-05     -6.38912 
         950         0.12 -0.000678249  4.83277e-05     -6.38912 
         950     0.213332  -0.00216278  0.000131966     -6.38911 
         950     0.333332   -0.0039582  0.000264927     -6.38911 
         950         0.48   -0.0053834  0.000434404     -6.38912 
         950     0.653331  -0.00607919  0.000623069     -6.38912 
         950     0.853332  -0.00609731  0.000821299     -6.38912 
         950         1.08  -0.00563661   0.00102812     -6.38912 
         950      1.33333  -0.00491273   0.00124111     -6.38912 
         950      1.61333  -0.00417046   0.00145007     -6.38911 
         950         1.92   -0.0035333   0.00164251     -6.38911 
         950      2.25333  -0.00289448   0.00181018     -6.38909 
         950      2.61333   -0.0021915    0.0019462     -6.38907 
         950            3  -0.00144221   0.00204246     -6.38903 
        1000            0           -0           -0     -2.63281 
        1000     0.013333 -0.000878149  3.47774e-07     -2.63281 
        1000     0.053333  -0.00343951  4.44092e-06     -2.63281 
        1000         0.12  -0.00682014  1.42123e-05     -2.63281 
        1000     0.213332  -0.00983284   1.8312e-05     -2.63281 
        1000     0.333332   -0.0115286 -7.53774e-06     -2.63281 
        1000         0.48   -0.0118056 -8.47481e-05     -2.63281 
        1000     0.653331   -0.0112815 -0.000217469     -2.63281 
        1000     0.853332   -0.0106191  -0.00039287     -2.63282 
        1000         1.08   -0.0100324 -0.000589607     -2.63282 
        1000      1.33333  -0.00931727 -0.000785508     -2.63282 
        1000      1.61333  -0.00826998 -0.000965679     -2.63281 
        1000         1.92   -0.0070033  -0.00112812     -2.63279 
        1000      2.25333  -0.00566322  -0.00127401     -2.63276 
        1000      2.61333  -0.00427809   -0.0013987      -2.6327 
        1000            3  -0.00283038  -0.00149441     -2.63263 
