Variables = x, y, u, v, p

Zone, I=416, F=POINT
         -50            0  1.56738e-19  4.91473e-23      127.037 
         -50     0.013333  0.000138599  5.62505e-08      127.037 
         -50     0.053333  0.000144146   2.1041e-08      127.037 
         -50         0.12  0.000157061 -1.18163e-07      127.037 
         -50     0.213332  0.000167444 -1.53931e-07      127.037 
         -50     0.333332  0.000172226  3.10507e-07      127.037 
         -50         0.48  0.000172894  9.85425e-07      127.036 
         -50     0.653331   0.00017023  1.40408e-06      127.036 
         -50     0.853332   0.00016278  1.75698e-06      127.035 
         -50         1.08  0.000153645  1.87109e-06      127.034 
         -50      1.33333  0.000146169  2.24595e-06      127.033 
         -50      1.61333  0.000139178  2.67378e-06      127.031 
         -50         1.92  0.000134019  3.54733e-06      127.029 
         -50      2.25333  0.000124892  2.85124e-06      127.026 
         -50      2.61333  0.000112549  5.27853e-07      127.023 
         -50            3  0.000105931 -8.14479e-07      127.018 
         -25            0           -0           -0      121.921 
         -25     0.013333  9.37875e-05  3.78778e-08      121.921 
         -25     0.053333  7.62113e-05  2.05339e-07      121.921 
         -25         0.12  5.59819e-05  6.46254e-07      121.921 
         -25     0.213332  3.78215e-05  1.25224e-06      121.921 
         -25     0.333332  2.55909e-05  1.79266e-06      121.921 
         -25         0.48  1.84392e-05  2.26584e-06      121.921 
         -25     0.653331  1.77127e-05  2.82772e-06      121.921 
         -25     0.853332  2.62258e-05  3.66115e-06       121.92 
         -25         1.08  4.19388e-05  4.79763e-06       121.92 
         -25      1.33333  6.00779e-05  6.01603e-06      121.919 
         -25      1.61333  7.86001e-05   6.8816e-06      121.919 
         -25         1.92  9.17886e-05  7.46406e-06      121.918 
         -25      2.25333  0.000104189  7.75423e-06      121.917 
         -25      2.61333   0.00011228  6.34804e-06      121.915 
         -25            3  0.000111104  3.30044e-06      121.914 
           0            0            0            0      117.704 
           0     0.013333   0.00013639 -0.000172936      117.709 
           0     0.053333  0.000161641 -7.91169e-05      117.718 
           0         0.12  0.000166759 -6.57959e-05      117.727 
           0     0.213332  0.000182545 -5.13612e-05      117.738 
           0     0.333332  0.000198768 -4.44106e-05      117.749 
           0         0.48  0.000206829 -4.01969e-05       117.76 
           0     0.653331  0.000205626 -3.78583e-05      117.771 
           0     0.853332  0.000192549 -3.68263e-05      117.781 
           0         1.08  0.000170368 -3.66465e-05      117.792 
           0      1.33333  0.000146069 -3.66267e-05      117.802 
           0      1.61333  0.000120219 -3.62359e-05      117.812 
           0         1.92  9.55045e-05   -3.498e-05      117.821 
           0      2.25333  8.06296e-05 -3.25591e-05       117.83 
           0      2.61333  7.20868e-05 -2.99097e-05      117.837 
           0            3  6.68694e-05 -2.65118e-05      117.845 
          20            0            0            0      115.147 
          20     0.013333  6.72771e-05  2.19077e-08      115.147 
          20     0.053333  3.68833e-05  1.31287e-07      115.147 
          20         0.12 -2.39214e-06  4.64043e-07      115.147 
          20     0.213332 -3.95686e-05  9.59043e-07      115.147 
          20     0.333332 -6.29842e-05  1.21813e-06      115.147 
          20         0.48  -7.1955e-05  7.26402e-07      115.147 
          20     0.653331 -7.33998e-05 -8.01882e-07      115.146 
          20     0.853332 -6.83016e-05 -3.16469e-06      115.146 
          20         1.08  -5.1594e-05 -5.85274e-06      115.146 
          20      1.33333 -2.50186e-05 -8.42016e-06      115.146 
          20      1.61333  8.03662e-06 -1.06168e-05      115.145 
          20         1.92   4.4539e-05  -1.2137e-05      115.145 
          20      2.25333   7.4024e-05 -1.30231e-05      115.144 
          20      2.61333  9.17739e-05 -1.31147e-05      115.144 
          20            3  0.000100228 -1.22229e-05      115.143 
          40            0            0            0      112.488 
          40     0.013333   7.7903e-05  5.86141e-08      112.488 
          40     0.053333  7.81022e-05   8.1038e-07      112.488 
          40         0.12  4.99707e-05  3.58435e-06      112.488 
          40     0.213332 -7.13979e-06  9.29427e-06      112.488 
          40     0.333332 -6.45149e-05   1.7649e-05      112.488 
          40         0.48 -9.78549e-05  2.77816e-05      112.488 
          40     0.653331  -9.9723e-05  3.92048e-05      112.488 
          40     0.853332 -7.65036e-05  5.14975e-05      112.488 
          40         1.08 -4.50277e-05  6.34834e-05      112.488 
          40      1.33333 -1.67731e-05  7.37441e-05      112.488 
          40      1.61333   1.0782e-05  8.11728e-05      112.488 
          40         1.92  4.36689e-05  8.45721e-05      112.488 
          40      2.25333  6.93527e-05  8.40929e-05      112.488 
          40      2.61333  8.87418e-05  8.06917e-05      112.487 
          40            3  0.000104244  7.55618e-05      112.487 
          60            0           -0           -0      109.967 
          60     0.013333  7.88048e-05  3.13347e-08      109.967 
          60     0.053333  9.61061e-05  4.24825e-07      109.967 
          60         0.12  0.000105859  1.86341e-06      109.967 
          60     0.213332  9.95279e-05  4.85444e-06      109.967 
          60     0.333332  8.50823e-05  9.43806e-06      109.967 
          60         0.48  7.35433e-05  1.54813e-05      109.967 
          60     0.653331  7.43054e-05  2.30281e-05      109.967 
          60     0.853332  8.97871e-05  3.19518e-05      109.967 
          60         1.08  0.000104009  4.10634e-05      109.967 
          60      1.33333  0.000102335  4.87451e-05      109.967 
          60      1.61333  9.27142e-05  5.43433e-05      109.967 
          60         1.92  8.14723e-05  5.72757e-05      109.966 
          60      2.25333  6.60137e-05  5.72243e-05      109.966 
          60      2.61333  5.40506e-05  5.51937e-05      109.966 
          60            3  5.26756e-05    5.237e-05      109.966 
          80            0           -0           -0      107.523 
          80     0.013333   6.7102e-05 -1.16822e-08      107.523 
          80     0.053333  6.92048e-05  -2.0469e-07      107.523 
          80         0.12  8.39567e-05 -9.42893e-07      107.523 
          80     0.213332  0.000107599 -2.49306e-06      107.523 
          80     0.333332  0.000129191 -4.73524e-06      107.523 
          80         0.48  0.000140061 -7.29098e-06      107.523 
          80     0.653331  0.000139806 -9.87004e-06      107.523 
          80     0.853332  0.000132122 -1.23016e-05      107.523 
          80         1.08  0.000121488 -1.44134e-05      107.523 
          80      1.33333  0.000109128 -1.61608e-05      107.523 
          80      1.61333  9.51463e-05 -1.74671e-05      107.523 
          80         1.92  7.84366e-05 -1.80984e-05      107.523 
          80      2.25333  6.55998e-05 -1.79036e-05      107.523 
          80      2.61333    5.523e-05 -1.71501e-05      107.523 
          80            3  4.46561e-05 -1.56231e-05      107.523 
         100            0            0            0      105.129 
         100     0.013333  5.31804e-05 -1.47064e-08      105.129 
         100     0.053333  2.36097e-05 -2.60437e-07      105.129 
         100         0.12   4.7487e-06 -1.31753e-06      105.129 
         100     0.213332   9.4404e-06 -3.88446e-06      105.129 
         100     0.333332  3.11035e-05 -8.28244e-06      105.129 
         100         0.48  5.25802e-05 -1.43171e-05      105.129 
         100     0.653331  6.26275e-05 -2.15764e-05      105.129 
         100     0.853332  6.14085e-05 -2.95011e-05      105.129 
         100         1.08  5.85511e-05 -3.72769e-05      105.129 
         100      1.33333  6.04567e-05 -4.40892e-05      105.129 
         100      1.61333  6.55171e-05 -4.94492e-05      105.129 
         100         1.92  7.02538e-05 -5.27415e-05      105.129 
         100      2.25333  7.39815e-05 -5.36162e-05      105.129 
         100      2.61333  7.30781e-05 -5.24355e-05      105.129 
         100            3  6.55873e-05 -4.99321e-05      105.129 
         150            0           -0           -0      99.2581 
         150     0.013333  4.86199e-05 -5.14286e-09      99.2581 
         150     0.053333  8.76957e-06 -1.19851e-07      99.2581 
         150         0.12 -2.57822e-05 -7.72167e-07      99.2581 
         150     0.213332 -3.56269e-05 -2.70657e-06      99.2581 
         150     0.333332 -2.19463e-05 -6.46024e-06      99.2581 
         150         0.48 -2.33988e-06 -1.19291e-05      99.2581 
         150     0.653331   1.0289e-05 -1.85374e-05      99.2581 
         150     0.853332  1.67273e-05 -2.55236e-05       99.258 
         150         1.08  2.46425e-05 -3.21713e-05       99.258 
         150      1.33333  3.56846e-05 -3.80078e-05       99.258 
         150      1.61333  4.70693e-05 -4.27635e-05       99.258 
         150         1.92  5.70297e-05 -4.59231e-05       99.258 
         150      2.25333  6.64521e-05 -4.70176e-05       99.258 
         150      2.61333  7.63655e-05 -4.61173e-05       99.258 
         150            3  8.63875e-05 -4.33513e-05      99.2579 
         200            0  1.42571e-19  2.12337e-25      93.4595 
         200     0.013333  5.71919e-05 -1.03186e-08      93.4595 
         200     0.053333  3.91373e-05   -1.562e-07      93.4595 
         200         0.12  2.42575e-05 -6.98751e-07      93.4595 
         200     0.213332   1.6626e-05 -1.84509e-06      93.4595 
         200     0.333332  1.50082e-05 -3.64118e-06      93.4595 
         200         0.48   1.5587e-05 -6.09401e-06      93.4595 
         200     0.653331  1.46903e-05 -9.29134e-06      93.4595 
         200     0.853332   9.8216e-06 -1.32518e-05      93.4595 
         200         1.08  5.50875e-06 -1.75977e-05      93.4595 
         200      1.33333  9.62512e-06  -2.1633e-05      93.4595 
         200      1.61333  2.05004e-05 -2.49354e-05      93.4595 
         200         1.92  3.25656e-05 -2.73039e-05      93.4595 
         200      2.25333  4.59611e-05 -2.85032e-05      93.4595 
         200      2.61333  5.90738e-05 -2.86116e-05      93.4595 
         200            3  6.73889e-05 -2.80256e-05      93.4595 
         250            0           -0           -0      87.6853 
         250     0.013333  8.98353e-05  1.88962e-08      87.6853 
         250     0.053333  0.000147206  3.28338e-07      87.6853 
         250         0.12  0.000199277  1.76348e-06      87.6853 
         250     0.213332  0.000212141  5.51813e-06      87.6853 
         250     0.333332  0.000188408   1.2345e-05      87.6853 
         250         0.48  0.000155603   2.2055e-05      87.6853 
         250     0.653331  0.000136791  3.38822e-05      87.6853 
         250     0.853332  0.000134678  4.68999e-05      87.6853 
         250         1.08  0.000135125  5.99533e-05      87.6853 
         250      1.33333  0.000125244  7.18719e-05      87.6853 
         250      1.61333    0.0001083  8.19701e-05      87.6853 
         250         1.92  9.13036e-05  8.95708e-05      87.6853 
         250      2.25333  7.39257e-05  9.38705e-05      87.6853 
         250      2.61333  5.78512e-05   9.4693e-05      87.6853 
         250            3  4.52725e-05  9.21391e-05      87.6853 
         300            0           -0           -0      81.9189 
         300     0.013333  9.49114e-05  -7.9306e-09      81.9189 
         300     0.053333  0.000172083 -5.84764e-08      81.9189 
         300         0.12  0.000262468  1.25604e-07      81.9189 
         300     0.213332  0.000321203  1.50195e-06      81.9189 
         300     0.333332  0.000331576  5.18833e-06      81.9189 
         300         0.48   0.00031203    1.156e-05      81.9189 
         300     0.653331  0.000289812  2.00694e-05      81.9189 
         300     0.853332  0.000273416  2.96304e-05      81.9189 
         300         1.08  0.000252035  3.90015e-05      81.9189 
         300      1.33333  0.000217873  4.73006e-05      81.9189 
         300      1.61333  0.000177781  5.43391e-05      81.9189 
         300         1.92  0.000136252  5.98648e-05      81.9189 
         300      2.25333  9.54351e-05  6.32905e-05      81.9188 
         300      2.61333  5.78528e-05  6.44567e-05      81.9188 
         300            3  2.76231e-05  6.34371e-05      81.9188 
         350            0           -0           -0      76.1547 
         350     0.013333  5.60263e-05 -4.96479e-08      76.1547 
         350     0.053333   4.7569e-05 -7.49404e-07      76.1547 
         350         0.12  7.56028e-05 -3.40653e-06      76.1547 
         350     0.213332  0.000145773 -9.15031e-06      76.1547 
         350     0.333332  0.000229174 -1.80573e-05      76.1547 
         350         0.48  0.000290908 -2.92422e-05      76.1547 
         350     0.653331  0.000317615 -4.17633e-05      76.1547 
         350     0.853332   0.00031237 -5.51962e-05      76.1547 
         350         1.08  0.000283212 -6.93252e-05      76.1547 
         350      1.33333  0.000243998 -8.34347e-05      76.1547 
         350      1.61333  0.000206752 -9.63074e-05      76.1547 
         350         1.92  0.000167786 -0.000106818      76.1547 
         350      2.25333    0.0001279 -0.000114177      76.1547 
         350      2.61333  8.93487e-05  -0.00011774      76.1547 
         350            3  5.52598e-05 -0.000117189      76.1547 
         400            0           -0           -0      70.3907 
         400     0.013333  2.27537e-05   6.0231e-08      70.3907 
         400     0.053333 -0.000101103  8.25917e-07      70.3907 
         400         0.12 -0.000277352  3.20528e-06      70.3907 
         400     0.213332 -0.000445373  6.90322e-06      70.3907 
         400     0.333332 -0.000545913  1.02041e-05      70.3907 
         400         0.48 -0.000570526  1.14698e-05      70.3907 
         400     0.653331 -0.000550215  1.05135e-05      70.3907 
         400     0.853332 -0.000508452  8.52655e-06      70.3907 
         400         1.08 -0.000443935  6.97915e-06      70.3907 
         400      1.33333 -0.000358093  6.36784e-06      70.3907 
         400      1.61333 -0.000265808  6.03704e-06      70.3907 
         400         1.92 -0.000168643   5.5263e-06      70.3907 
         400      2.25333 -6.85396e-05  4.96143e-06      70.3907 
         400      2.61333  2.88787e-05  4.30596e-06      70.3907 
         400            3  0.000114931  3.54937e-06      70.3907 
         450            0  9.54263e-20 -7.02283e-27      64.6267 
         450     0.013333  0.000123486  1.53958e-08      64.6267 
         450     0.053333  0.000268606  3.10236e-07      64.6267 
         450         0.12  0.000426841  1.91666e-06      64.6267 
         450     0.213332  0.000519684  6.71888e-06      64.6267 
         450     0.333332  0.000524095  1.64556e-05      64.6267 
         450         0.48  0.000476519  3.15795e-05      64.6267 
         450     0.653331  0.000428398  5.12872e-05      64.6267 
         450     0.853332  0.000404751  7.42217e-05      64.6267 
         450         1.08  0.000394125  9.85966e-05      64.6267 
         450      1.33333  0.000365954  0.000122206      64.6267 
         450      1.61333  0.000310588  0.000143356      64.6267 
         450         1.92    0.0002463  0.000161165      64.6267 
         450      2.25333  0.000180113  0.000174642      64.6267 
         450      2.61333  0.000115311  0.000182745      64.6266 
         450            3   5.6854e-05  0.000184794      64.6266 
         500            0            0            0       58.861 
         500     0.013333  9.03272e-06 -1.02638e-08       58.861 
         500     0.053333 -0.000131941   -2.251e-07       58.861 
         500         0.12 -0.000284457 -1.49097e-06       58.861 
         500     0.213332 -0.000377291 -5.48873e-06       58.861 
         500     0.333332 -0.000385282 -1.39075e-05       58.861 
         500         0.48 -0.000340539 -2.72977e-05       58.861 
         500     0.653331 -0.000291497 -4.49151e-05       58.861 
         500     0.853332 -0.000262941 -6.53959e-05       58.861 
         500         1.08 -0.000246764 -8.71426e-05       58.861 
         500      1.33333 -0.000219985 -0.000108486       58.861 
         500      1.61333  -0.00017355 -0.000128145       58.861 
         500         1.92 -0.000117791 -0.000145186       58.861 
         500      2.25333 -5.82037e-05 -0.000158712       58.861 
         500      2.61333  2.08188e-06 -0.000167633       58.861 
         500            3  5.90703e-05 -0.000171162       58.861 
         550            0           -0           -0      53.0944 
         550     0.013333  0.000120514  2.48918e-08      53.0944 
         550     0.053333  0.000254422  4.49941e-07      53.0944 
         550         0.12  0.000391095  2.53317e-06      53.0944 
         550     0.213332  0.000454495    8.329e-06      53.0944 
         550     0.333332   0.00042992  1.95286e-05      53.0944 
         550         0.48  0.000362847  3.62904e-05      53.0944 
         550     0.653331  0.000307779   5.7425e-05      53.0944 
         550     0.853332  0.000286354  8.13341e-05      53.0944 
         550         1.08  0.000283853  0.000106303      53.0944 
         550      1.33333  0.000270066  0.000130456      53.0944 
         550      1.61333  0.000233603  0.000152349      53.0944 
         550         1.92   0.00019003  0.000171238      53.0944 
         550      2.25333  0.000145487  0.000186173      53.0944 
         550      2.61333  0.000101416  0.000196013      53.0944 
         550            3  6.00165e-05  0.000199897      53.0944 
         600            0           -0           -0      47.3263 
         600     0.013333  5.62603e-06 -3.77954e-08      47.3263 
         600     0.053333 -0.000136757 -6.35712e-07      47.3263 
         600         0.12 -0.000271886 -3.32441e-06      47.3263 
         600     0.213332 -0.000325224 -1.03118e-05      47.3263 
         600     0.333332  -0.00028675 -2.32252e-05      47.3263 
         600         0.48  -0.00020682 -4.21082e-05      47.3263 
         600     0.653331 -0.000142044 -6.58118e-05      47.3263 
         600     0.853332 -0.000118242 -9.29705e-05      47.3263 
         600         1.08 -0.000125394 -0.000122072      47.3263 
         600      1.33333  -0.00012902 -0.000151051      47.3263 
         600      1.61333 -0.000105449 -0.000177866      47.3263 
         600         1.92 -6.91543e-05 -0.000201305      47.3263 
         600      2.25333 -3.00752e-05 -0.000220425      47.3263 
         600      2.61333  9.51467e-06 -0.000233919      47.3263 
         600            3  4.81089e-05 -0.000240631      47.3263 
         650            0            0            0      41.5578 
         650     0.013333  0.000105997 -2.38854e-08      41.5578 
         650     0.053333  0.000219787 -3.19375e-07      41.5578 
         650         0.12  0.000379579 -1.17679e-06      41.5578 
         650     0.213332  0.000532207 -2.26473e-06      41.5578 
         650     0.333332  0.000630633  -2.4988e-06      41.5578 
         650         0.48  0.000662312 -7.03949e-07      41.5578 
         650     0.653331  0.000649465  3.63855e-06      41.5578 
         650     0.853332  0.000621128  1.02786e-05      41.5578 
         650         1.08  0.000590116   1.8451e-05      41.5578 
         650      1.33333  0.000549101  2.71528e-05      41.5578 
         650      1.61333  0.000486796  3.53003e-05      41.5578 
         650         1.92  0.000407801  4.24728e-05      41.5578 
         650      2.25333  0.000320203  4.86462e-05      41.5578 
         650      2.61333  0.000228825  5.34296e-05      41.5578 
         650            3  0.000137975  5.64736e-05      41.5578 
         700            0            0            0      35.7884 
         700     0.013333   6.0597e-05  1.13511e-07      35.7884 
         700     0.053333  1.20487e-05  1.70235e-06      35.7884 
         700         0.12 -0.000134323  7.66532e-06      35.7884 
         700     0.213332 -0.000374955  2.03368e-05      35.7884 
         700     0.333332 -0.000623035  3.94707e-05      35.7884 
         700         0.48 -0.000785611  6.25298e-05      35.7884 
         700     0.653331 -0.000834185  8.70207e-05      35.7884 
         700     0.853332 -0.000793529    0.0001121      35.7884 
         700         1.08  -0.00069752  0.000137911      35.7884 
         700      1.33333 -0.000580926  0.000163759      35.7884 
         700      1.61333 -0.000474351  0.000187939      35.7884 
         700         1.92  -0.00037439  0.000209144      35.7884 
         700      2.25333 -0.000267528  0.000226289      35.7884 
         700      2.61333 -0.000152363  0.000238409      35.7884 
         700            3 -3.75316e-05  0.000244462      35.7884 
         750            0           -0           -0       30.019 
         750     0.013333 -2.82867e-05 -1.50038e-07       30.019 
         750     0.053333  -0.00022236 -2.35416e-06       30.019 
         750         0.12 -0.000324404 -1.13273e-05       30.019 
         750     0.213332 -0.000208076 -3.25211e-05       30.019 
         750     0.333332  8.38815e-05 -6.86806e-05       30.019 
         750         0.48  0.000395104 -0.000118256       30.019 
         750     0.653331  0.000598124  -0.00017744       30.019 
         750     0.853332  0.000656521  -0.00024314       30.019 
         750         1.08  0.000598433 -0.000313351       30.019 
         750      1.33333  0.000492341 -0.000385133       30.019 
         750      1.61333  0.000410323 -0.000454068       30.019 
         750         1.92  0.000357068 -0.000516538       30.019 
         750      2.25333  0.000303233 -0.000569831       30.019 
         750      2.61333  0.000240477 -0.000611005       30.019 
         750            3  0.000175173 -0.000637111       30.019 
         800            0            0            0      24.2485 
         800     0.013333  0.000221453 -7.14586e-08      24.2485 
         800     0.053333  0.000652136 -9.17672e-07      24.2485 
         800         0.12   0.00123548 -3.09692e-06      24.2485 
         800     0.213332   0.00177366 -4.84302e-06      24.2485 
         800     0.333332   0.00210312 -2.05332e-06      24.2485 
         800         0.48   0.00219598  9.05633e-06      24.2486 
         800     0.653331   0.00214466  2.95404e-05      24.2486 
         800     0.853332   0.00205407  5.76682e-05      24.2486 
         800         1.08   0.00195904  9.00512e-05      24.2486 
         800      1.33333   0.00182424  0.000122725      24.2486 
         800      1.61333   0.00161524  0.000152675      24.2485 
         800         1.92   0.00135488   0.00017913      24.2485 
         800      2.25333   0.00107081  0.000202101      24.2485 
         800      2.61333    0.0007728  0.000220654      24.2485 
         800            3  0.000466115  0.000233514      24.2485 
         850            0           -0           -0      18.4758 
         850     0.013333  0.000161678  1.52744e-07      18.4758 
         850     0.053333  0.000362158  2.39084e-06      18.4758 
         850         0.12  0.000477401  1.14853e-05      18.4758 
         850     0.213332  0.000370439  3.30031e-05      18.4758 
         850     0.333332  7.64896e-05  6.99302e-05      18.4758 
         850         0.48 -0.000247745  0.000120953      18.4758 
         850     0.653331 -0.000465729  0.000182235      18.4758 
         850     0.853332 -0.000535345  0.000250392      18.4758 
         850         1.08 -0.000484933  0.000323274      18.4758 
         850      1.33333 -0.000378354  0.000398427      18.4758 
         850      1.61333 -0.000282935  0.000472232      18.4758 
         850         1.92 -0.000219253  0.000540987      18.4758 
         850      2.25333  -0.00016409  0.000601577      18.4758 
         850      2.61333 -0.000105305  0.000650746      18.4758 
         850            3 -4.38675e-05  0.000685296      18.4758 
         900            0           -0           -0      12.7025 
         900     0.013333 -0.000119339  8.23262e-08      12.7025 
         900     0.053333   -0.0006263  1.03054e-06      12.7025 
         900         0.12  -0.00129346  3.25942e-06      12.7025 
         900     0.213332   -0.0018803  4.13702e-06      12.7025 
         900     0.333332  -0.00219789 -1.70961e-06      12.7025 
         900         0.48  -0.00223746 -1.86225e-05      12.7025 
         900     0.653331  -0.00213328 -4.68435e-05      12.7025 
         900     0.853332  -0.00201331 -8.28818e-05      12.7025 
         900         1.08  -0.00189923 -0.000121485      12.7025 
         900      1.33333  -0.00173275 -0.000157687      12.7025 
         900      1.61333  -0.00148628 -0.000189037      12.7025 
         900         1.92  -0.00121133 -0.000216586      12.7025 
         900      2.25333 -0.000930951 -0.000240724      12.7025 
         900      2.61333  -0.00064324 -0.000260537      12.7025 
         900            3 -0.000347275 -0.000274613      12.7026 
         950            0           -0           -0      6.93011 
         950     0.013333  6.99896e-05 -2.13481e-07      6.93011 
         950     0.053333  0.000150209 -3.18067e-06      6.93011 
         950         0.12  0.000422635  -1.4206e-05      6.93011 
         950     0.213332  0.000881615 -3.74414e-05      6.93011 
         950     0.333332   0.00136838 -7.24404e-05      6.93011 
         950         0.48   0.00170752 -0.000114859      6.93011 
         950     0.653331   0.00184154 -0.000160573      6.93011 
         950     0.853332   0.00180901 -0.000208724      6.93011 
         950         1.08   0.00165087 -0.000261005      6.93011 
         950      1.33333   0.00140193 -0.000318009      6.93011 
         950      1.61333    0.0011386  -0.00037638      6.93011 
         950         1.92  0.000929333 -0.000430821      6.93011 
         950      2.25333  0.000741369 -0.000478258       6.9301 
         950      2.61333   0.00054625  -0.00051675      6.93009 
         950            3  0.000342621  -0.00054437      6.93008 
        1000            0  1.21891e-19  4.68624e-24      1.15557 
        1000     0.013333  0.000194817  9.55094e-08      1.15557 
        1000     0.053333  0.000513055  1.44315e-06      1.15557 
        1000         0.12  0.000851604  7.47782e-06      1.15557 
        1000     0.213332   0.00103725  2.34047e-05      1.15557 
        1000     0.333332   0.00101325  5.34476e-05      1.15557 
        1000         0.48   0.00085829  9.82342e-05      1.15557 
        1000     0.653331  0.000701197  0.000155245      1.15557 
        1000     0.853332  0.000627936  0.000221199      1.15557 
        1000         1.08  0.000645354  0.000292976      1.15557 
        1000      1.33333  0.000682199   0.00036646      1.15557 
        1000      1.61333  0.000645312  0.000436674      1.15557 
        1000         1.92  0.000529823  0.000500591      1.15557 
        1000      2.25333  0.000396284  0.000557494      1.15556 
        1000      2.61333  0.000268223  0.000605771      1.15555 
        1000            3  0.000138604  0.000642933      1.15554 
