Variables = x, y, u, v, p

Zone, I=416, F=POINT
         -50            0 -8.87921e-20 -2.15497e-23      -46.105 
         -50     0.013333 -6.55678e-05 -2.37775e-08      -46.105 
         -50     0.053333 -7.66691e-05  2.59585e-09      -46.105 
         -50         0.12 -0.000101295 -2.86429e-08      -46.105 
         -50     0.213332 -0.000115161 -5.94637e-07      -46.105 
         -50     0.333332 -0.000117222 -1.68612e-06     -46.1049 
         -50         0.48 -0.000112827 -3.11857e-06     -46.1048 
         -50     0.653331  -0.00010651 -6.59086e-06     -46.1047 
         -50     0.853332 -9.77945e-05 -8.91175e-06     -46.1044 
         -50         1.08 -8.61367e-05 -1.17666e-05     -46.1041 
         -50      1.33333 -7.12313e-05 -1.36267e-05     -46.1037 
         -50      1.61333  -5.0292e-05 -1.45853e-05      -46.103 
         -50         1.92 -3.11517e-05  -1.5549e-05     -46.1022 
         -50      2.25333 -1.75821e-05 -1.41302e-05     -46.1012 
         -50      2.61333 -6.89311e-06 -9.89476e-06     -46.0999 
         -50            3 -1.36258e-06 -6.28997e-06     -46.0982 
         -25            0           -0           -0     -44.2479 
         -25     0.013333 -4.14278e-05 -1.15996e-08     -44.2479 
         -25     0.053333 -3.29723e-05 -3.22256e-08     -44.2479 
         -25         0.12 -3.41758e-05 -4.36049e-08     -44.2479 
         -25     0.213332 -3.72526e-05  7.31896e-09     -44.2479 
         -25     0.333332 -4.16185e-05  9.06538e-08     -44.2479 
         -25         0.48 -4.45578e-05  1.12447e-07     -44.2479 
         -25     0.653331  -4.6797e-05  7.84763e-08     -44.2478 
         -25     0.853332 -4.97372e-05 -5.05191e-07     -44.2477 
         -25         1.08 -5.21018e-05 -1.38638e-06     -44.2476 
         -25      1.33333 -5.18096e-05 -2.28384e-06     -44.2474 
         -25      1.61333 -5.00924e-05 -2.91958e-06     -44.2472 
         -25         1.92 -4.82417e-05 -4.10897e-06     -44.2469 
         -25      2.25333  -4.9522e-05 -3.51787e-06     -44.2465 
         -25      2.61333 -5.01584e-05 -2.38779e-06      -44.246 
         -25            3 -4.74821e-05 -4.64774e-06     -44.2454 
           0            0            0            0     -42.7161 
           0     0.013333 -7.36635e-05  8.33352e-05      -42.718 
           0     0.053333 -7.23764e-05  3.44886e-05     -42.7212 
           0         0.12 -7.89029e-05  2.64267e-05     -42.7247 
           0     0.213332 -7.86153e-05  2.05898e-05     -42.7285 
           0     0.333332 -7.65645e-05  1.70348e-05     -42.7325 
           0         0.48 -7.27637e-05  1.35101e-05     -42.7365 
           0     0.653331 -7.06926e-05  1.02594e-05     -42.7404 
           0     0.853332 -6.90684e-05  7.16364e-06     -42.7444 
           0         1.08 -6.46226e-05  4.43468e-06     -42.7482 
           0      1.33333 -5.61036e-05  2.19512e-06     -42.7519 
           0      1.61333 -4.35317e-05   4.0348e-07     -42.7554 
           0         1.92 -2.95663e-05 -7.60169e-07     -42.7587 
           0      2.25333 -2.39459e-05 -1.80282e-06     -42.7618 
           0      2.61333 -3.12404e-05 -3.85536e-06     -42.7647 
           0            3 -4.15197e-05 -5.97992e-06     -42.7674 
          20            0            0            0     -41.7871 
          20     0.013333 -3.16633e-05  1.76689e-08     -41.7871 
          20     0.053333   -2.918e-05  3.39043e-07     -41.7871 
          20         0.12 -4.81051e-05  1.53237e-06     -41.7871 
          20     0.213332 -7.86428e-05  3.96512e-06     -41.7871 
          20     0.333332 -0.000107028  7.46611e-06     -41.7871 
          20         0.48 -0.000123577   1.1571e-05      -41.787 
          20     0.653331 -0.000131161  1.58309e-05      -41.787 
          20     0.853332 -0.000129649  1.99963e-05      -41.787 
          20         1.08 -0.000115298  2.39702e-05     -41.7869 
          20      1.33333 -9.45111e-05  2.72139e-05     -41.7868 
          20      1.61333 -7.24369e-05  2.92081e-05     -41.7867 
          20         1.92 -4.94566e-05  2.99694e-05     -41.7865 
          20      2.25333 -2.58666e-05  2.94948e-05     -41.7863 
          20      2.61333 -2.76584e-06  2.85288e-05      -41.786 
          20            3  1.66993e-05  2.90605e-05     -41.7856 
          40            0            0            0     -40.8211 
          40     0.013333 -2.87985e-05  1.39109e-08     -40.8211 
          40     0.053333 -2.13063e-05  2.15546e-07     -40.8211 
          40         0.12 -2.25905e-05  8.55247e-07     -40.8211 
          40     0.213332 -2.35817e-05  1.93734e-06     -40.8211 
          40     0.333332 -2.17471e-05   3.2899e-06     -40.8211 
          40         0.48  -1.6894e-05  4.94245e-06     -40.8211 
          40     0.653331 -9.15461e-06  7.20118e-06     -40.8211 
          40     0.853332  1.61108e-06  1.02173e-05     -40.8211 
          40         1.08  8.93071e-06   1.3512e-05      -40.821 
          40      1.33333  7.78785e-06  1.63744e-05      -40.821 
          40      1.61333  2.03248e-06  1.84177e-05      -40.821 
          40         1.92 -3.16477e-06  1.97592e-05     -40.8209 
          40      2.25333 -1.23357e-05  1.93931e-05     -40.8208 
          40      2.61333 -2.41622e-05  1.80893e-05     -40.8207 
          40            3 -3.25454e-05  1.69262e-05     -40.8206 
          60            0           -0           -0     -39.9046 
          60     0.013333 -3.75164e-05 -2.07672e-08     -39.9046 
          60     0.053333 -4.71323e-05 -3.19863e-07     -39.9046 
          60         0.12 -4.99005e-05 -1.55999e-06     -39.9046 
          60     0.213332 -3.28404e-05 -4.40718e-06     -39.9046 
          60     0.333332  -9.7549e-06 -8.92073e-06     -39.9046 
          60         0.48  3.53471e-06   -1.459e-05     -39.9046 
          60     0.653331  1.96483e-06 -2.08143e-05     -39.9046 
          60     0.853332  -6.0616e-06 -2.68583e-05     -39.9046 
          60         1.08 -9.12848e-06 -3.19277e-05     -39.9046 
          60      1.33333 -9.18039e-06 -3.57517e-05     -39.9045 
          60      1.61333 -1.02114e-05  -3.8317e-05     -39.9045 
          60         1.92 -1.32702e-05 -3.92221e-05     -39.9045 
          60      2.25333 -1.69242e-05 -3.82776e-05     -39.9044 
          60      2.61333 -2.18992e-05 -3.60247e-05     -39.9044 
          60            3 -2.77394e-05 -3.27816e-05     -39.9043 
          80            0           -0           -0     -39.0165 
          80     0.013333 -3.95371e-05 -2.76418e-08     -39.0165 
          80     0.053333  -5.5087e-05 -4.19085e-07     -39.0165 
          80         0.12 -6.23477e-05  -1.9573e-06     -39.0165 
          80     0.213332 -4.60156e-05 -5.36634e-06     -39.0165 
          80     0.333332 -1.91406e-05 -1.07606e-05     -39.0165 
          80         0.48  1.27665e-06 -1.77704e-05     -39.0165 
          80     0.653331  5.36322e-06 -2.60283e-05     -39.0165 
          80     0.853332 -4.67011e-06 -3.50331e-05     -39.0165 
          80         1.08 -1.34983e-05 -4.36441e-05     -39.0164 
          80      1.33333 -1.36604e-05 -5.07757e-05     -39.0164 
          80      1.61333 -1.29275e-05 -5.60801e-05     -39.0164 
          80         1.92 -1.38431e-05 -5.88763e-05     -39.0164 
          80      2.25333 -1.37199e-05 -5.89622e-05     -39.0164 
          80      2.61333 -1.32031e-05 -5.65547e-05     -39.0163 
          80            3  -1.2769e-05 -5.22065e-05     -39.0163 
         100            0            0            0     -38.1462 
         100     0.013333 -3.94573e-05 -1.81207e-10     -38.1462 
         100     0.053333 -6.29295e-05 -1.82588e-08     -38.1462 
         100         0.12 -9.46723e-05 -2.17359e-07     -38.1462 
         100     0.213332 -0.000114407  -9.8074e-07     -38.1462 
         100     0.333332 -0.000119041 -2.69275e-06     -38.1462 
         100         0.48 -0.000114854 -5.46482e-06     -38.1462 
         100     0.653331 -0.000109779 -9.11366e-06     -38.1462 
         100     0.853332 -0.000104483 -1.32264e-05     -38.1462 
         100         1.08 -9.36098e-05 -1.72311e-05     -38.1462 
         100      1.33333 -7.59936e-05 -2.06238e-05     -38.1462 
         100      1.61333 -5.60214e-05 -2.32568e-05     -38.1462 
         100         1.92 -3.51361e-05 -2.48413e-05     -38.1461 
         100      2.25333 -1.64068e-05 -2.51305e-05     -38.1461 
         100      2.61333  5.14745e-07 -2.42574e-05     -38.1461 
         100            3  1.45376e-05 -2.29211e-05     -38.1461 
         150            0           -0           -0     -36.0121 
         150     0.013333 -1.08308e-05 -2.11255e-08     -36.0121 
         150     0.053333  4.07107e-05 -2.70467e-07     -36.0121 
         150         0.12  0.000101002  -9.2994e-07     -36.0121 
         150     0.213332   0.00014934 -1.60465e-06     -36.0121 
         150     0.333332  0.000168749 -1.48178e-06     -36.0121 
         150         0.48  0.000166139 -8.70143e-08     -36.0121 
         150     0.653331  0.000155011  2.33218e-06     -36.0121 
         150     0.853332  0.000138404  5.03916e-06     -36.0121 
         150         1.08  0.000113531  7.48611e-06     -36.0121 
         150      1.33333  8.43767e-05  9.63838e-06     -36.0121 
         150      1.61333  5.33723e-05  1.16268e-05     -36.0121 
         150         1.92  1.86866e-05  1.32321e-05     -36.0121 
         150      2.25333 -1.17793e-05  1.42588e-05     -36.0121 
         150      2.61333 -3.48819e-05  1.47835e-05     -36.0121 
         150            3 -5.08386e-05  1.49413e-05     -36.0121 
         200            0 -7.42707e-20 -9.01986e-26     -33.9047 
         200     0.013333 -1.59779e-05 -2.66372e-08     -33.9047 
         200     0.053333  2.44085e-05   -3.722e-07     -33.9047 
         200         0.12   7.9025e-05 -1.49864e-06     -33.9047 
         200     0.213332  0.000134728 -3.42477e-06     -33.9047 
         200     0.333332  0.000170217 -5.56748e-06     -33.9047 
         200         0.48  0.000181473 -7.29525e-06     -33.9047 
         200     0.653331  0.000176342 -8.47312e-06     -33.9047 
         200     0.853332  0.000160704 -9.41871e-06     -33.9047 
         200         1.08  0.000135839 -1.04343e-05     -33.9047 
         200      1.33333  0.000105431 -1.15073e-05     -33.9047 
         200      1.61333  7.32752e-05 -1.23429e-05     -33.9047 
         200         1.92  3.84615e-05 -1.28736e-05     -33.9047 
         200      2.25333  6.27197e-06 -1.29105e-05     -33.9047 
         200      2.61333 -2.21837e-05 -1.25334e-05     -33.9047 
         200            3 -4.60343e-05 -1.16883e-05     -33.9047 
         250            0           -0           -0     -31.8066 
         250     0.013333 -3.00635e-05 -3.03965e-08     -31.8066 
         250     0.053333  -2.4119e-05 -4.49607e-07     -31.8066 
         250         0.12 -4.21528e-06 -1.98814e-06     -31.8066 
         250     0.213332  3.61025e-05 -5.18938e-06     -31.8066 
         250     0.333332  8.03444e-05 -1.00049e-05     -31.8066 
         250         0.48  0.000113323  -1.5984e-05     -31.8066 
         250     0.653331   0.00012869 -2.27801e-05     -31.8066 
         250     0.853332  0.000125113  -3.0369e-05     -31.8066 
         250         1.08  0.000104603 -3.86842e-05     -31.8066 
         250      1.33333  7.80807e-05 -4.70875e-05     -31.8066 
         250      1.61333  5.43154e-05 -5.45845e-05     -31.8066 
         250         1.92  2.95182e-05 -6.04079e-05     -31.8066 
         250      2.25333  6.78723e-06 -6.41103e-05     -31.8066 
         250      2.61333 -1.16957e-05 -6.53836e-05     -31.8066 
         250            3 -2.48731e-05 -6.42124e-05     -31.8066 
         300            0           -0           -0     -29.7119 
         300     0.013333 -3.81166e-05  4.56291e-08     -29.7119 
         300     0.053333 -7.36954e-05  6.63662e-07     -29.7119 
         300         0.12 -0.000151453  2.84337e-06     -29.7119 
         300     0.213332 -0.000247028  7.06665e-06     -29.7119 
         300     0.333332 -0.000324685  1.27295e-05     -29.7119 
         300         0.48 -0.000362628  1.87076e-05     -29.7119 
         300     0.653331 -0.000365666    2.435e-05     -29.7119 
         300     0.853332 -0.000345279  2.97532e-05     -29.7119 
         300         1.08 -0.000307694  3.51469e-05     -29.7119 
         300      1.33333   -0.0002597  4.03678e-05     -29.7119 
         300      1.61333 -0.000207045  4.48445e-05     -29.7119 
         300         1.92 -0.000148143  4.82545e-05     -29.7119 
         300      2.25333 -8.88946e-05  5.00364e-05     -29.7119 
         300      2.61333 -3.36519e-05  5.01598e-05     -29.7119 
         300            3   1.4434e-05  4.88398e-05     -29.7118 
         350            0           -0           -0     -27.6181 
         350     0.013333  2.06201e-05  2.31991e-08     -27.6181 
         350     0.053333  0.000140847  4.18603e-07     -27.6181 
         350         0.12  0.000254451  2.33811e-06     -27.6181 
         350     0.213332  0.000306169  7.58471e-06     -27.6181 
         350     0.333332  0.000287818  1.75261e-05     -27.6181 
         350         0.48  0.000239556  3.22174e-05     -27.6181 
         350     0.653331  0.000203108  5.07336e-05     -27.6181 
         350     0.853332  0.000192245  7.17739e-05     -27.6181 
         350         1.08  0.000188966  9.35668e-05     -27.6181 
         350      1.33333  0.000166665  0.000114061     -27.6181 
         350      1.61333  0.000125218  0.000131952     -27.6181 
         350         1.92   8.0064e-05  0.000146427     -27.6181 
         350      2.25333  3.46878e-05  0.000156285     -27.6181 
         350      2.61333 -8.46479e-06  0.000160841     -27.6181 
         350            3 -4.56608e-05  0.000159823     -27.6181 
         400            0           -0           -0     -25.5251 
         400     0.013333 -5.33231e-05 -1.15354e-08     -25.5251 
         400     0.053333 -0.000111766 -2.04458e-07     -25.5251 
         400         0.12 -0.000176716 -1.13909e-06     -25.5251 
         400     0.213332 -0.000207629 -3.75755e-06     -25.5251 
         400     0.333332 -0.000196013 -8.93123e-06     -25.5251 
         400         0.48  -0.00016002 -1.69079e-05     -25.5251 
         400     0.653331 -0.000125257 -2.72692e-05     -25.5251 
         400     0.853332 -0.000104673 -3.93335e-05     -25.5251 
         400         1.08 -9.66706e-05 -5.24179e-05     -25.5251 
         400      1.33333 -9.18235e-05 -6.57818e-05     -25.5251 
         400      1.61333 -8.12747e-05 -7.84911e-05     -25.5251 
         400         1.92 -6.55658e-05 -8.95368e-05     -25.5251 
         400      2.25333  -4.7605e-05 -9.81546e-05     -25.5251 
         400      2.61333  -2.9468e-05 -0.000103626     -25.5251 
         400            3 -1.31008e-05 -0.000105542     -25.5251 
         450            0 -2.71594e-20  2.99301e-28     -23.4322 
         450     0.013333  1.02068e-05  2.46878e-08     -23.4322 
         450     0.053333  0.000103955  4.18219e-07     -23.4322 
         450         0.12  0.000187402   2.2023e-06     -23.4322 
         450     0.213332  0.000217737  6.86398e-06     -23.4322 
         450     0.333332  0.000189743   1.5497e-05     -23.4322 
         450         0.48  0.000137798  2.81116e-05     -23.4322 
         450     0.653331   9.7307e-05  4.38961e-05     -23.4322 
         450     0.853332  8.20198e-05   6.1862e-05     -23.4322 
         450         1.08  8.31804e-05  8.09322e-05     -23.4322 
         450      1.33333  8.01642e-05  9.97246e-05     -23.4322 
         450      1.61333  6.26594e-05  0.000116943     -23.4322 
         450         1.92  3.97911e-05  0.000131597     -23.4322 
         450      2.25333    1.582e-05  0.000142825     -23.4322 
         450      2.61333 -7.39534e-06  0.000149707     -23.4323 
         450            3 -2.79315e-05  0.000151651     -23.4323 
         500            0            0            0     -21.3396 
         500     0.013333  -6.4714e-05 -4.80281e-08     -21.3396 
         500     0.053333 -0.000141085  -7.6793e-07     -21.3396 
         500         0.12 -0.000198745 -3.77397e-06     -21.3396 
         500     0.213332 -0.000184171 -1.10224e-05     -21.3396 
         500     0.333332 -0.000109683 -2.35475e-05     -21.3396 
         500         0.48  -2.5632e-05 -4.08535e-05     -21.3396 
         500     0.653331  2.63834e-05 -6.16483e-05     -21.3396 
         500     0.853332  3.59027e-05 -8.47734e-05     -21.3396 
         500         1.08  1.75218e-05 -0.000109105     -21.3396 
         500      1.33333 -1.64803e-06   -0.0001331     -21.3396 
         500      1.61333 -6.72371e-06 -0.000155171     -21.3396 
         500         1.92  -7.4989e-06 -0.000174134     -21.3396 
         500      2.25333 -8.78478e-06 -0.000188877     -21.3396 
         500      2.61333 -1.08836e-05 -0.000198278     -21.3396 
         500            3 -1.36072e-05 -0.000201547     -21.3396 
         550            0           -0           -0     -19.2471 
         550     0.013333 -2.80257e-06  3.73452e-08     -19.2471 
         550     0.053333  5.56753e-05  5.74133e-07     -19.2471 
         550         0.12  9.51701e-05  2.68362e-06     -19.2471 
         550     0.213332  9.36038e-05  7.47271e-06     -19.2471 
         550     0.333332  5.71259e-05  1.54013e-05     -19.2471 
         550         0.48  1.25395e-05  2.62058e-05     -19.2471 
         550     0.653331 -1.86443e-05  3.94452e-05     -19.2471 
         550     0.853332 -2.54815e-05  5.49146e-05     -19.2471 
         550         1.08 -7.77639e-06  7.23369e-05     -19.2471 
         550      1.33333  1.67197e-05  9.06339e-05     -19.2471 
         550      1.61333  2.52991e-05  0.000108063     -19.2471 
         550         1.92  2.10427e-05  0.000123374     -19.2471 
         550      2.25333  1.33987e-05  0.000135773     -19.2471 
         550      2.61333  5.10472e-06  0.000144448     -19.2471 
         550            3 -4.15382e-06  0.000148747     -19.2471 
         600            0           -0           -0     -17.1548 
         600     0.013333 -3.21702e-05  5.87563e-08     -17.1548 
         600     0.053333 -5.90915e-05  8.87368e-07     -17.1548 
         600         0.12 -0.000147177  4.02887e-06     -17.1548 
         600     0.213332 -0.000285481  1.07535e-05     -17.1548 
         600     0.333332 -0.000424816  2.08963e-05     -17.1548 
         600         0.48 -0.000512354  3.29543e-05     -17.1548 
         600     0.653331 -0.000534021  4.54029e-05     -17.1548 
         600     0.853332 -0.000507125  5.75863e-05     -17.1548 
         600         1.08 -0.000456068  6.92791e-05     -17.1548 
         600      1.33333 -0.000401321  8.00317e-05     -17.1548 
         600      1.61333 -0.000348862  8.93791e-05     -17.1548 
         600         1.92 -0.000289015  9.71266e-05     -17.1548 
         600      2.25333  -0.00022116  0.000102886     -17.1548 
         600      2.61333 -0.000148784  0.000106175     -17.1548 
         600            3 -7.68158e-05  0.000106611     -17.1548 
         650            0            0            0     -15.0621 
         650     0.013333 -3.16059e-05 -1.48261e-07     -15.0621 
         650     0.053333   8.9759e-06 -2.22476e-06     -15.0621 
         650         0.12  0.000167435 -1.00303e-05     -15.0621 
         650     0.213332  0.000453092 -2.66784e-05     -15.0621 
         650     0.333332  0.000761309  -5.2023e-05     -15.0621 
         650         0.48   0.00097611 -8.30282e-05     -15.0621 
         650     0.653331   0.00105752 -0.000116681     -15.0621 
         650     0.853332   0.00102782 -0.000152002     -15.0621 
         650         1.08  0.000919215 -0.000189215     -15.0621 
         650      1.33333  0.000772937 -0.000227271     -15.0621 
         650      1.61333  0.000635739 -0.000263353     -15.0621 
         650         1.92  0.000507798 -0.000294945     -15.0621 
         650      2.25333  0.000371849 -0.000320461     -15.0621 
         650      2.61333    0.0002273 -0.000338356     -15.0621 
         650            3  8.43119e-05  -0.00034713     -15.0621 
         700            0            0            0     -12.9702 
         700     0.013333  6.88123e-05  9.79535e-08     -12.9702 
         700     0.053333  0.000294031    1.555e-06     -12.9702 
         700         0.12  0.000482801  7.60722e-06     -12.9702 
         700     0.213332  0.000516635   2.2282e-05     -12.9702 
         700     0.333332  0.000391368  4.81422e-05     -12.9702 
         700         0.48  0.000202019  8.49818e-05     -12.9702 
         700     0.653331  4.76472e-05  0.000130809     -12.9702 
         700     0.853332 -2.27827e-05  0.000183671     -12.9702 
         700         1.08 -9.29028e-06  0.000241957     -12.9702 
         700      1.33333  4.38219e-05  0.000303005     -12.9702 
         700      1.61333  7.19648e-05  0.000362668     -12.9702 
         700         1.92  6.24404e-05  0.000417079     -12.9702 
         700      2.25333  4.13067e-05  0.000463675     -12.9702 
         700      2.61333  2.07379e-05  0.000499743     -12.9702 
         700            3  -1.1505e-06  0.000522725     -12.9702 
         750            0           -0           -0     -10.8786 
         750     0.013333 -6.79078e-05  9.90005e-08     -10.8786 
         750     0.053333 -0.000202277  1.45559e-06     -10.8786 
         750         0.12 -0.000458449  6.37612e-06     -10.8786 
         750     0.213332 -0.000788848  1.63993e-05     -10.8786 
         750     0.333332  -0.00109536  3.08005e-05     -10.8786 
         750         0.48  -0.00129384  4.70803e-05     -10.8786 
         750     0.653331  -0.00137068  6.29103e-05     -10.8786 
         750     0.853332  -0.00136106  7.74987e-05     -10.8786 
         750         1.08  -0.00129684  9.14249e-05     -10.8786 
         750      1.33333  -0.00118856  0.000105533     -10.8786 
         750      1.61333  -0.00104296  0.000119969     -10.8786 
         750         1.92  -0.00087364  0.000133965     -10.8785 
         750      2.25333 -0.000688631  0.000146152     -10.8785 
         750      2.61333 -0.000492427  0.000155734     -10.8785 
         750            3  -0.00029063  0.000161975     -10.8785 
         800            0            0            0     -8.78639 
         800     0.013333 -0.000174237  -6.1833e-08     -8.78639 
         800     0.053333 -0.000529806 -1.09186e-06     -8.78639 
         800         0.12 -0.000904867 -6.05257e-06     -8.78639 
         800     0.213332  -0.00109515 -1.98612e-05     -8.78639 
         800     0.333332  -0.00104134 -4.69674e-05     -8.78639 
         800         0.48 -0.000844614 -8.84505e-05     -8.78639 
         800     0.653331 -0.000655184 -0.000141842     -8.78639 
         800     0.853332 -0.000555376 -0.000203295     -8.78639 
         800         1.08 -0.000533252 -0.000268993     -8.78639 
         800      1.33333  -0.00052099  -0.00033499     -8.78639 
         800      1.61333 -0.000466627 -0.000397782     -8.78639 
         800         1.92 -0.000380887 -0.000455257     -8.78639 
         800      2.25333 -0.000287968 -0.000505382     -8.78638 
         800      2.61333 -0.000194753 -0.000545439     -8.78638 
         800            3 -0.000100334 -0.000572522     -8.78637 
         850            0           -0           -0      -6.6935 
         850     0.013333  0.000119279 -1.42038e-07      -6.6935 
         850     0.053333  0.000550103 -1.95799e-06      -6.6935 
         850         0.12   0.00116843 -7.66496e-06      -6.6935 
         850     0.213332   0.00178691 -1.66383e-05      -6.6935 
         850     0.333332   0.00220196  -2.4464e-05     -6.69349 
         850         0.48   0.00234917 -2.62044e-05     -6.69349 
         850     0.653331   0.00231483 -2.02417e-05     -6.69349 
         850     0.853332   0.00221035 -8.97868e-06     -6.69349 
         850         1.08   0.00206502  2.99905e-06     -6.69349 
         850      1.33333   0.00184726  1.17468e-05     -6.69349 
         850      1.61333   0.00156347   1.6625e-05     -6.69349 
         850         1.92   0.00127106  1.99446e-05      -6.6935 
         850      2.25333  0.000975959  2.30508e-05     -6.69351 
         850      2.61333  0.000670619   2.5858e-05     -6.69352 
         850            3  0.000357149  2.79235e-05     -6.69354 
         900            0           -0           -0     -4.60253 
         900     0.013333  1.02129e-05   2.0347e-07     -4.60253 
         900     0.053333  4.82998e-05  3.07644e-06     -4.60253 
         900         0.12 -7.59156e-05  1.40536e-05     -4.60253 
         900     0.213332 -0.000408693  3.80856e-05     -4.60253 
         900     0.333332 -0.000833217  7.59993e-05     -4.60253 
         900         0.48  -0.00117398  0.000124364     -4.60253 
         900     0.653331  -0.00134165  0.000179016     -4.60253 
         900     0.853332  -0.00134353   0.00023823     -4.60253 
         900         1.08  -0.00121357  0.000302392     -4.60253 
         900      1.33333  -0.00100162  0.000370697     -4.60253 
         900      1.61333 -0.000793953  0.000439024     -4.60253 
         900         1.92 -0.000643636  0.000502002     -4.60253 
         900      2.25333 -0.000509363  0.000556893     -4.60252 
         900      2.61333 -0.000366418  0.000601184     -4.60252 
         900            3 -0.000219146  0.000632227     -4.60251 
         950            0           -0           -0     -2.51066 
         950     0.013333 -0.000167352 -2.45651e-08     -2.51066 
         950     0.053333 -0.000519848 -5.08504e-07     -2.51066 
         950         0.12 -0.000932084 -3.24951e-06     -2.51066 
         950     0.213332  -0.00121799 -1.17829e-05     -2.51066 
         950     0.333332  -0.00129575 -2.97804e-05     -2.51066 
         950         0.48  -0.00122039 -5.86755e-05     -2.51066 
         950     0.653331  -0.00111053 -9.71947e-05     -2.51066 
         950     0.853332  -0.00104961 -0.000142812     -2.51066 
         950         1.08  -0.00104556 -0.000192635     -2.51067 
         950      1.33333  -0.00103776 -0.000242903     -2.51066 
         950      1.61333 -0.000957085  -0.00028953     -2.51066 
         950         1.92 -0.000811906 -0.000330614     -2.51066 
         950      2.25333 -0.000649974 -0.000365999     -2.51066 
         950      2.61333 -0.000487572 -0.000394633     -2.51065 
         950            3 -0.000320721 -0.000414785     -2.51064 
        1000            0 -3.53884e-20  -6.6376e-25     -0.41822 
        1000     0.013333 -9.32712e-06 -8.82263e-08     -0.41822 
        1000     0.053333  6.55073e-05 -1.26693e-06     -0.41822 
        1000         0.12  0.000206057 -5.46521e-06     -0.41822 
        1000     0.213332  0.000397613 -1.38427e-05     -0.41822 
        1000     0.333332   0.00058013 -2.57098e-05     -0.41822 
        1000         0.48  0.000702176 -3.92337e-05    -0.418219 
        1000     0.653331  0.000752461 -5.29999e-05    -0.418219 
        1000     0.853332  0.000748196 -6.68881e-05    -0.418219 
        1000         1.08   0.00070188 -8.18474e-05    -0.418218 
        1000      1.33333  0.000612529 -9.89254e-05    -0.418218 
        1000      1.61333  0.000492664 -0.000117946    -0.418218 
        1000         1.92  0.000378411 -0.000136883     -0.41822 
        1000      2.25333  0.000276536  -0.00015391    -0.418222 
        1000      2.61333  0.000177916  -0.00016807    -0.418226 
        1000            3  7.76633e-05 -0.000178784    -0.418232 
