Variables = x, y, u, v, p

Zone, I=416, F=POINT
         -50            0            0            0      -132.17 
         -50     0.013333 -0.000455039 -1.20331e-07      -132.17 
         -50     0.053333 -0.000407204  -5.1899e-07      -132.17 
         -50         0.12  -0.00037604 -1.33581e-06      -132.17 
         -50     0.213332 -0.000351981 -2.50213e-06      -132.17 
         -50     0.333332 -0.000333231 -3.94465e-06      -132.17 
         -50         0.48 -0.000319033 -5.10597e-06      -132.17 
         -50     0.653331 -0.000312019 -7.10362e-06     -132.169 
         -50     0.853332 -0.000316277 -8.98524e-06     -132.169 
         -50         1.08 -0.000331619 -1.04795e-05     -132.168 
         -50      1.33333 -0.000352661 -1.30411e-05     -132.166 
         -50      1.61333 -0.000374285 -1.48119e-05     -132.165 
         -50         1.92 -0.000388422 -1.75282e-05     -132.162 
         -50      2.25333 -0.000392071 -1.91878e-05     -132.159 
         -50      2.61333 -0.000399339  -2.5359e-05     -132.156 
         -50            3 -0.000416937 -4.00609e-05     -132.151 
         -25            0 -3.83157e-19 -1.89663e-23     -126.874 
         -25     0.013333  -0.00033196 -3.97683e-08     -126.874 
         -25     0.053333  -0.00029785 -1.07787e-07     -126.874 
         -25         0.12 -0.000282324 -8.60028e-08     -126.874 
         -25     0.213332 -0.000278239  1.99385e-07     -126.874 
         -25     0.333332 -0.000278945   8.3411e-07     -126.874 
         -25         0.48 -0.000278997  1.74163e-06     -126.873 
         -25     0.653331 -0.000278426  2.70007e-06     -126.873 
         -25     0.853332 -0.000280014  3.52831e-06     -126.873 
         -25         1.08 -0.000284955  3.96228e-06     -126.873 
         -25      1.33333 -0.000290694  4.08299e-06     -126.872 
         -25      1.61333 -0.000296287  3.77747e-06     -126.871 
         -25         1.92 -0.000305178  2.87062e-06     -126.871 
         -25      2.25333 -0.000313191  1.70324e-06     -126.869 
         -25      2.61333 -0.000315845  1.29277e-07     -126.868 
         -25            3 -0.000312683 -1.56009e-06     -126.866 
           0            0 -8.79117e-19  1.19827e-18     -122.534 
           0     0.013333 -0.000864038  0.000532334     -122.539 
           0     0.053333 -0.000531347  0.000277266     -122.547 
           0         0.12 -0.000398596  0.000186581     -122.556 
           0     0.213332 -0.000327802  0.000142506     -122.565 
           0     0.333332 -0.000284248  0.000114029     -122.574 
           0         0.48 -0.000253374  9.18583e-05     -122.583 
           0     0.653331 -0.000234796  7.41887e-05     -122.593 
           0     0.853332 -0.000226227  5.96238e-05     -122.601 
           0         1.08 -0.000225503   4.7472e-05      -122.61 
           0      1.33333   -0.0002314  3.73533e-05     -122.618 
           0      1.61333 -0.000241718  2.90445e-05     -122.626 
           0         1.92 -0.000252041  2.24596e-05     -122.633 
           0      2.25333 -0.000256391  1.76207e-05      -122.64 
           0      2.61333 -0.000255094  1.41371e-05     -122.647 
           0            3  -0.00025582  9.80329e-06     -122.652 
          20            0           -0           -0     -119.884 
          20     0.013333 -0.000271767 -1.02046e-07     -119.884 
          20     0.053333 -0.000246622 -9.06728e-07     -119.884 
          20         0.12 -0.000217891 -3.46273e-06     -119.884 
          20     0.213332 -0.000190943 -8.26718e-06     -119.884 
          20     0.333332 -0.000184811 -1.49586e-05     -119.884 
          20         0.48 -0.000193736 -2.24894e-05     -119.884 
          20     0.653331  -0.00019374  -2.9115e-05     -119.883 
          20     0.853332 -0.000195997 -3.48631e-05     -119.883 
          20         1.08 -0.000211996 -4.04558e-05     -119.883 
          20      1.33333 -0.000230057 -4.49896e-05     -119.882 
          20      1.61333 -0.000247702 -4.77006e-05     -119.881 
          20         1.92 -0.000264317 -4.82625e-05      -119.88 
          20      2.25333 -0.000277335 -4.66981e-05     -119.879 
          20      2.61333  -0.00028083 -4.34695e-05     -119.877 
          20            3  -0.00028154 -4.20892e-05     -119.876 
          40            0           -0           -0      -117.11 
          40     0.013333 -0.000205744 -3.90091e-08      -117.11 
          40     0.053333 -8.73449e-05 -3.44781e-07      -117.11 
          40         0.12  2.79162e-05 -6.27963e-07      -117.11 
          40     0.213332  8.95871e-05  7.53129e-07      -117.11 
          40     0.333332  9.03965e-05  5.60342e-06      -117.11 
          40         0.48   6.8223e-05  1.41671e-05      -117.11 
          40     0.653331  5.05104e-05   2.4945e-05      -117.11 
          40     0.853332  2.74099e-05  3.55558e-05      -117.11 
          40         1.08 -1.79399e-05  4.45797e-05      -117.11 
          40      1.33333   -8.197e-05  5.17471e-05      -117.11 
          40      1.61333 -0.000151449  5.71482e-05      -117.11 
          40         1.92 -0.000219958   5.9769e-05      -117.11 
          40      2.25333 -0.000276434  5.92108e-05     -117.109 
          40      2.61333  -0.00031287  5.64805e-05     -117.109 
          40            3 -0.000327115  5.24036e-05     -117.109 
          60            0           -0           -0     -114.494 
          60     0.013333 -0.000194079 -5.16825e-08     -114.494 
          60     0.053333 -6.49353e-05 -5.96338e-07     -114.494 
          60         0.12  8.01124e-05 -1.88392e-06     -114.494 
          60     0.213332  0.000186607 -2.76035e-06     -114.494 
          60     0.333332  0.000227677 -1.27566e-06     -114.494 
          60         0.48  0.000225791  3.53011e-06     -114.494 
          60     0.653331  0.000209778  1.08312e-05     -114.494 
          60     0.853332  0.000175376  1.83312e-05     -114.494 
          60         1.08  0.000105221  2.39994e-05     -114.494 
          60      1.33333   1.4986e-05  2.75407e-05     -114.494 
          60      1.61333  -7.8161e-05  3.00195e-05     -114.494 
          60         1.92  -0.00017629  3.11762e-05     -114.493 
          60      2.25333  -0.00025526  3.06587e-05     -114.493 
          60      2.61333 -0.000304011  2.95263e-05     -114.493 
          60            3 -0.000324944  2.80008e-05     -114.493 
          80            0           -0           -0      -111.96 
          80     0.013333 -0.000211929 -7.86387e-08      -111.96 
          80     0.053333 -0.000134728 -1.06485e-06      -111.96 
          80         0.12   -2.658e-05 -4.26647e-06      -111.96 
          80     0.213332  8.50308e-05 -9.83691e-06      -111.96 
          80     0.333332  0.000162018 -1.65074e-05      -111.96 
          80         0.48  0.000194742 -2.30895e-05      -111.96 
          80     0.653331  0.000187868 -2.97628e-05      -111.96 
          80     0.853332  0.000137372 -3.76995e-05      -111.96 
          80         1.08  5.53777e-05 -4.67759e-05      -111.96 
          80      1.33333 -2.29132e-05 -5.52399e-05      -111.96 
          80      1.61333 -9.44843e-05 -6.15774e-05      -111.96 
          80         1.92  -0.00017308 -6.52933e-05      -111.96 
          80      2.25333 -0.000236611 -6.62561e-05     -111.959 
          80      2.61333 -0.000280346 -6.44253e-05     -111.959 
          80            3 -0.000308106  -6.0874e-05     -111.959 
         100            0 -2.66106e-19 -9.30658e-25     -109.477 
         100     0.013333 -0.000246521 -4.01146e-08     -109.477 
         100     0.053333 -0.000272768 -6.05023e-07     -109.477 
         100         0.12 -0.000290953 -2.88216e-06     -109.477 
         100     0.213332 -0.000270106 -8.18655e-06     -109.477 
         100     0.333332  -0.00022081 -1.70898e-05     -109.477 
         100         0.48 -0.000173226 -2.91867e-05     -109.477 
         100     0.653331 -0.000149594 -4.37206e-05     -109.477 
         100     0.853332 -0.000154237 -5.99913e-05     -109.477 
         100         1.08   -0.0001719 -7.67537e-05     -109.477 
         100      1.33333 -0.000181974  -9.2054e-05     -109.477 
         100      1.61333 -0.000187349 -0.000104412     -109.477 
         100         1.92  -0.00019621 -0.000112408     -109.477 
         100      2.25333 -0.000203383 -0.000115349     -109.477 
         100      2.61333 -0.000209579 -0.000113457     -109.477 
         100            3 -0.000214535 -0.000107518     -109.477 
         150            0           -0           -0     -103.389 
         150     0.013333 -0.000241187 -5.57945e-08     -103.389 
         150     0.053333 -0.000263167 -8.31693e-07     -103.389 
         150         0.12 -0.000272513 -3.75523e-06     -103.389 
         150     0.213332 -0.000244628 -1.00494e-05     -103.389 
         150     0.333332 -0.000195156 -1.99449e-05     -103.389 
         150         0.48 -0.000151837 -3.29656e-05     -103.389 
         150     0.653331 -0.000134605 -4.87335e-05     -103.389 
         150     0.853332 -0.000150436 -6.69923e-05     -103.389 
         150         1.08  -0.00018255 -8.64291e-05     -103.389 
         150      1.33333 -0.000201301 -0.000104554     -103.389 
         150      1.61333 -0.000207086 -0.000119435     -103.389 
         150         1.92    -0.000215  -0.00012971     -103.389 
         150      2.25333 -0.000219472 -0.000134382     -103.389 
         150      2.61333 -0.000219764 -0.000133507     -103.389 
         150            3 -0.000218202  -0.00012801     -103.389 
         200            0            0            0     -97.3771 
         200     0.013333 -0.000264266 -4.62891e-08     -97.3771 
         200     0.053333 -0.000345997 -7.94067e-07     -97.3771 
         200         0.12 -0.000410379 -4.19177e-06     -97.3771 
         200     0.213332 -0.000395566 -1.28193e-05     -97.3771 
         200     0.333332 -0.000321421 -2.78976e-05     -97.3771 
         200         0.48 -0.000251264 -4.83607e-05      -97.377 
         200     0.653331 -0.000223212 -7.20485e-05      -97.377 
         200     0.853332 -0.000227016  -9.6658e-05      -97.377 
         200         1.08 -0.000228192 -0.000119786      -97.377 
         200      1.33333 -0.000213975 -0.000139704      -97.377 
         200      1.61333 -0.000198578  -0.00015575      -97.377 
         200         1.92 -0.000188512 -0.000166488      -97.377 
         200      2.25333 -0.000180787 -0.000170712      -97.377 
         200      2.61333 -0.000177005 -0.000168493      -97.377 
         200            3 -0.000179225 -0.000160621      -97.377 
         250            0           -0           -0      -91.391 
         250     0.013333 -0.000311929 -8.82122e-08      -91.391 
         250     0.053333 -0.000505828 -1.47291e-06      -91.391 
         250         0.12 -0.000672377 -7.58006e-06      -91.391 
         250     0.213332 -0.000690273 -2.29271e-05      -91.391 
         250     0.333332  -0.00057644 -5.00941e-05      -91.391 
         250         0.48 -0.000436912 -8.81504e-05      -91.391 
         250     0.653331 -0.000356209  -0.00013426      -91.391 
         250     0.853332  -0.00034677 -0.000185256      -91.391 
         250         1.08 -0.000360708 -0.000237176      -91.391 
         250      1.33333 -0.000344359 -0.000285381      -91.391 
         250      1.61333 -0.000300016 -0.000326542      -91.391 
         250         1.92  -0.00025602   -0.0003575      -91.391 
         250      2.25333 -0.000213395 -0.000375469      -91.391 
         250      2.61333 -0.000176173 -0.000379419      -91.391 
         250            3 -0.000149207 -0.000369719      -91.391 
         300            0            0            0     -85.4141 
         300     0.013333 -0.000285919  1.66372e-08     -85.4141 
         300     0.053333  -0.00044261  1.09497e-07     -85.4141 
         300         0.12 -0.000635544 -3.79717e-07     -85.4141 
         300     0.213332 -0.000768063 -3.51346e-06     -85.4141 
         300     0.333332 -0.000808135 -1.14412e-05     -85.4141 
         300         0.48 -0.000796021  -2.4586e-05     -85.4141 
         300     0.653331 -0.000782404 -4.15607e-05     -85.4141 
         300     0.853332 -0.000772584 -5.98538e-05     -85.4141 
         300         1.08 -0.000729376 -7.63649e-05     -85.4141 
         300      1.33333  -0.00063591 -8.90667e-05     -85.4141 
         300      1.61333 -0.000524258  -9.8381e-05     -85.4141 
         300         1.92 -0.000410668 -0.000104535     -85.4141 
         300      2.25333 -0.000300835 -0.000106835     -85.4141 
         300      2.61333  -0.00020135 -0.000105245     -85.4141 
         300            3 -0.000118927 -9.99027e-05      -85.414 
         350            0           -0           -0     -79.4401 
         350     0.013333 -0.000263898 -1.77287e-08     -79.4401 
         350     0.053333 -0.000356203 -3.52206e-07     -79.4401 
         350         0.12 -0.000455848  -2.1288e-06     -79.4401 
         350     0.213332 -0.000495864 -7.23619e-06     -79.4401 
         350     0.333332 -0.000469534 -1.70664e-05     -79.4401 
         350         0.48 -0.000420382 -3.14495e-05     -79.4401 
         350     0.653331 -0.000390491 -4.90821e-05     -79.4401 
         350     0.853332 -0.000386001 -6.82868e-05     -79.4401 
         350         1.08 -0.000380452 -8.70262e-05     -79.4401 
         350      1.33333 -0.000350302 -0.000103469     -79.4401 
         350      1.61333 -0.000307221 -0.000117138     -79.4401 
         350         1.92 -0.000266815 -0.000127721     -79.4401 
         350      2.25333 -0.000228887 -0.000134375     -79.4401 
         350      2.61333 -0.000194432 -0.000136516     -79.4401 
         350            3 -0.000166535 -0.000133992     -79.4401 
         400            0           -0           -0     -73.4672 
         400     0.013333 -0.000240604  1.83966e-08     -73.4672 
         400     0.053333 -0.000284708  2.23736e-07     -73.4672 
         400         0.12 -0.000357655  6.84715e-07     -73.4672 
         400     0.213332 -0.000421657  9.06284e-07     -73.4672 
         400     0.333332  -0.00045661  1.43869e-07     -73.4672 
         400         0.48 -0.000469444 -1.88846e-06     -73.4672 
         400     0.653331 -0.000476776 -4.82016e-06     -73.4672 
         400     0.853332  -0.00048026 -7.75684e-06     -73.4672 
         400         1.08 -0.000463226 -9.44533e-06     -73.4672 
         400      1.33333 -0.000418576  -9.2378e-06     -73.4672 
         400      1.61333 -0.000366085 -7.86867e-06     -73.4672 
         400         1.92 -0.000316102 -6.22908e-06     -73.4672 
         400      2.25333 -0.000267035 -4.27991e-06     -73.4672 
         400      2.61333 -0.000219602 -2.23027e-06     -73.4672 
         400            3 -0.000177645 -2.78801e-07     -73.4672 
         450            0            0            0     -67.4946 
         450     0.013333 -0.000267223 -3.92308e-08     -67.4946 
         450     0.053333 -0.000362122  -6.7254e-07     -67.4946 
         450         0.12 -0.000449307 -3.57184e-06     -67.4946 
         450     0.213332 -0.000455842  -1.1128e-05     -67.4946 
         450     0.333332 -0.000384073 -2.48754e-05     -67.4946 
         450         0.48 -0.000294263 -4.43703e-05     -67.4946 
         450     0.653331 -0.000240664 -6.78843e-05     -67.4946 
         450     0.853332 -0.000232845 -9.34977e-05     -67.4946 
         450         1.08 -0.000241456  -0.00011912     -67.4946 
         450      1.33333 -0.000234234 -0.000142778     -67.4946 
         450      1.61333 -0.000214312  -0.00016365     -67.4946 
         450         1.92  -0.00019895 -0.000181186     -67.4946 
         450      2.25333 -0.000186428 -0.000194175     -67.4946 
         450      2.61333 -0.000175787 -0.000201463     -67.4946 
         450            3 -0.000169208 -0.000202397     -67.4946 
         500            0           -0           -0     -61.5222 
         500     0.013333 -0.000228699  5.70007e-08     -61.5222 
         500     0.053333 -0.000253665  8.14393e-07     -61.5222 
         500         0.12 -0.000332065  3.41293e-06     -61.5222 
         500     0.213332 -0.000437437  8.33585e-06     -61.5222 
         500     0.333332 -0.000528098  1.49547e-05     -61.5222 
         500         0.48  -0.00058175  2.22888e-05     -61.5222 
         500     0.653331 -0.000603692  2.99785e-05     -61.5222 
         500     0.853332 -0.000599712  3.86149e-05     -61.5222 
         500         1.08 -0.000560786  4.92683e-05     -61.5222 
         500      1.33333 -0.000490311  6.19668e-05     -61.5222 
         500      1.61333 -0.000420107  7.48768e-05     -61.5222 
         500         1.92 -0.000359179   8.6131e-05     -61.5222 
         500      2.25333 -0.000299184  9.52098e-05     -61.5222 
         500      2.61333 -0.000239421  0.000101439     -61.5222 
         500            3 -0.000185219  0.000104282     -61.5222 
         550            0            0            0     -55.5497 
         550     0.013333 -0.000288087  3.37578e-09     -55.5497 
         550     0.053333 -0.000449643 -5.19456e-08     -55.5497 
         550         0.12 -0.000645522 -9.33605e-07     -55.5497 
         550     0.213332 -0.000767917 -4.76367e-06     -55.5497 
         550     0.333332 -0.000768014  -1.4124e-05     -55.5497 
         550         0.48 -0.000683615 -3.01458e-05     -55.5497 
         550     0.653331  -0.00058788 -5.17835e-05     -55.5497 
         550     0.853332 -0.000519797 -7.67388e-05     -55.5497 
         550         1.08  -0.00046987 -0.000102597     -55.5497 
         550      1.33333 -0.000418071  -0.00012777     -55.5497 
         550      1.61333 -0.000365323 -0.000151753     -55.5497 
         550         1.92 -0.000314223 -0.000173733     -55.5497 
         550      2.25333 -0.000261504 -0.000192264     -55.5497 
         550      2.61333 -0.000208566 -0.000205859     -55.5497 
         550            3 -0.000160237 -0.000213443     -55.5497 
         600            0           -0           -0     -49.5767 
         600     0.013333  -0.00011552 -1.28251e-08     -49.5767 
         600     0.053333  0.000171083 -6.62762e-08     -49.5767 
         600         0.12  0.000504134  5.36026e-07     -49.5767 
         600     0.213332  0.000758027   4.0679e-06     -49.5767 
         600     0.333332  0.000864497   1.3451e-05     -49.5767 
         600         0.48  0.000853267  3.02571e-05     -49.5767 
         600     0.653331  0.000801988  5.39546e-05     -49.5767 
         600     0.853332  0.000763624  8.26308e-05     -49.5767 
         600         1.08  0.000731727  0.000113479     -49.5767 
         600      1.33333  0.000661231  0.000143235     -49.5767 
         600      1.61333   0.00053428  0.000169649     -49.5767 
         600         1.92  0.000383991  0.000192455     -49.5767 
         600      2.25333  0.000224319  0.000210782     -49.5767 
         600      2.61333  6.00735e-05  0.000223589     -49.5767 
         600            3 -0.000100435  0.000229919     -49.5767 
         650            0            0            0     -43.6043 
         650     0.013333 -0.000260127  1.16525e-08     -43.6043 
         650     0.053333 -0.000352155  1.03642e-07     -43.6043 
         650         0.12 -0.000474762  1.29433e-09     -43.6043 
         650     0.213332 -0.000562031 -1.43253e-06     -43.6043 
         650     0.333332 -0.000583626  -5.6354e-06     -43.6043 
         650         0.48 -0.000561138 -1.31182e-05     -43.6043 
         650     0.653331 -0.000535272 -2.30604e-05     -43.6043 
         650     0.853332 -0.000522323 -3.39213e-05     -43.6043 
         650         1.08 -0.000506789 -4.40494e-05     -43.6043 
         650      1.33333 -0.000467853 -5.22276e-05     -43.6043 
         650      1.61333 -0.000409716   -5.828e-05     -43.6043 
         650         1.92 -0.000352903 -6.27785e-05     -43.6043 
         650      2.25333 -0.000299106 -6.57752e-05     -43.6043 
         650      2.61333 -0.000246154 -6.70347e-05     -43.6043 
         650            3 -0.000195273 -6.63564e-05     -43.6043 
         700            0           -0           -0     -37.6312 
         700     0.013333 -0.000105133  3.24974e-08     -37.6312 
         700     0.053333  0.000191985  6.38213e-07     -37.6312 
         700         0.12  0.000491918  3.89704e-06     -37.6312 
         700     0.213332  0.000644198  1.36725e-05     -37.6312 
         700     0.333332  0.000602992  3.36666e-05     -37.6312 
         700         0.48  0.000451947  6.48027e-05     -37.6312 
         700     0.653331  0.000310394   0.00010494     -37.6312 
         700     0.853332  0.000237767  0.000150646     -37.6312 
         700         1.08  0.000212725   0.00019832     -37.6312 
         700      1.33333  0.000177443  0.000244578     -37.6312 
         700      1.61333  0.000107741    0.0002873     -37.6312 
         700         1.92  3.03467e-05  0.000325754     -37.6312 
         700      2.25333 -4.59787e-05  0.000358495     -37.6312 
         700      2.61333 -0.000121317  0.000383351     -37.6312 
         700            3 -0.000194108   0.00039832     -37.6312 
         750            0            0            0     -31.6587 
         750     0.013333 -0.000366236  6.77593e-09     -31.6587 
         750     0.053333 -0.000731382 -9.56203e-08     -31.6587 
         750         0.12  -0.00117154 -1.74969e-06     -31.6587 
         750     0.213332  -0.00147877 -8.86043e-06     -31.6587 
         750     0.333332  -0.00155457 -2.60343e-05     -31.6587 
         750         0.48  -0.00146534  -5.5171e-05     -31.6587 
         750     0.653331  -0.00134898 -9.43822e-05     -31.6587 
         750     0.853332    -0.001285 -0.000139674     -31.6587 
         750         1.08  -0.00124973 -0.000186297     -31.6587 
         750      1.33333  -0.00116603  -0.00022965     -31.6587 
         750      1.61333  -0.00100906 -0.000267335     -31.6587 
         750         1.92 -0.000834932 -0.000299809     -31.6587 
         750      2.25333 -0.000662788 -0.000326931     -31.6587 
         750      2.61333 -0.000490509 -0.000347037     -31.6587 
         750            3 -0.000318032 -0.000358309     -31.6587 
         800            0           -0           -0     -25.6848 
         800     0.013333  -5.0431e-05 -4.82072e-08     -25.6848 
         800     0.053333  0.000414476 -5.05289e-07     -25.6848 
         800         0.12  0.000978084  -8.1243e-07     -25.6848 
         800     0.213332     0.001418  2.55251e-06     -25.6848 
         800     0.333332   0.00159409  1.48939e-05     -25.6848 
         800         0.48   0.00154629  3.93893e-05     -25.6848 
         800     0.653331   0.00142116  7.49536e-05     -25.6848 
         800     0.853332   0.00132476  0.000117427     -25.6848 
         800         1.08   0.00124837  0.000161371     -25.6848 
         800      1.33333   0.00111518  0.000201608     -25.6848 
         800      1.61333   0.00090222  0.000235984     -25.6848 
         800         1.92  0.000676757  0.000265968     -25.6848 
         800      2.25333  0.000453704  0.000291572     -25.6848 
         800      2.61333   0.00022613  0.000311596     -25.6848 
         800            3 -2.05279e-06  0.000324355     -25.6848 
         850            0           -0           -0     -19.7125 
         850     0.013333 -0.000328389  1.03797e-07     -19.7125 
         850     0.053333 -0.000626693  1.39664e-06     -19.7125 
         850         0.12  -0.00106631  5.23073e-06     -19.7125 
         850     0.213332  -0.00148831  1.05562e-05     -19.7125 
         850     0.333332  -0.00174849  1.37158e-05     -19.7125 
         850         0.48  -0.00182369  1.14287e-05     -19.7125 
         850     0.653331  -0.00179834  3.46479e-06     -19.7125 
         850     0.853332  -0.00175046 -7.37342e-06     -19.7125 
         850         1.08  -0.00167355 -1.66273e-05     -19.7125 
         850      1.33333  -0.00151291 -2.04142e-05     -19.7125 
         850      1.61333  -0.00127791 -1.85909e-05     -19.7125 
         850         1.92  -0.00105072 -1.47229e-05     -19.7125 
         850      2.25333 -0.000838969 -1.07655e-05     -19.7125 
         850      2.61333 -0.000627627 -7.00894e-06     -19.7125 
         850            3 -0.000412714 -3.18436e-06     -19.7125 
         900            0           -0           -0     -13.7385 
         900     0.013333 -0.000128474 -7.29782e-08     -13.7385 
         900     0.053333  0.000141522 -9.59442e-07     -13.7385 
         900         0.12  0.000491309 -3.41171e-06     -13.7385 
         900     0.213332  0.000795668 -6.11834e-06     -13.7385 
         900     0.333332  0.000944902 -5.71031e-06     -13.7385 
         900         0.48  0.000936557  5.61688e-07     -13.7385 
         900     0.653331  0.000856738  1.25186e-05     -13.7385 
         900     0.853332  0.000779005   2.7244e-05     -13.7385 
         900         1.08  0.000697049  4.06137e-05     -13.7385 
         900      1.33333  0.000562967  4.93722e-05     -13.7385 
         900      1.61333  0.000387074  5.37652e-05     -13.7385 
         900         1.92  0.000239678  5.69401e-05     -13.7385 
         900      2.25333  0.000115813  6.02523e-05     -13.7385 
         900      2.61333 -4.66982e-06  6.33278e-05     -13.7385 
         900            3 -0.000126788  6.53609e-05     -13.7385 
         950            0           -0           -0     -7.76591 
         950     0.013333 -0.000277181  1.39259e-07     -7.76591 
         950     0.053333 -0.000457047  2.00134e-06     -7.76591 
         950         0.12 -0.000796475  8.46888e-06     -7.76591 
         950     0.213332  -0.00121212  2.08027e-05     -7.76591 
         950     0.333332  -0.00156342  3.70486e-05     -7.76591 
         950         0.48  -0.00176201  5.37358e-05     -7.76591 
         950     0.653331  -0.00182391  6.89484e-05     -7.76591 
         950     0.853332  -0.00180404  8.36901e-05     -7.76592 
         950         1.08  -0.00171423  0.000101003     -7.76592 
         950      1.33333  -0.00153534  0.000123266     -7.76592 
         950      1.61333  -0.00130224  0.000149258     -7.76591 
         950         1.92   -0.0010953  0.000174478     -7.76591 
         950      2.25333 -0.000904961  0.000196482     -7.76591 
         950      2.61333 -0.000709447  0.000214474      -7.7659 
         950            3 -0.000504733  0.000227886     -7.76588 
        1000            0           -0           -0     -1.79188 
        1000     0.013333 -0.000196318 -3.85705e-08     -1.79188 
        1000     0.053333 -0.000109561  -4.9631e-07     -1.79188 
        1000         0.12  3.61822e-06 -1.81028e-06     -1.79188 
        1000     0.213332  0.000101712 -3.39232e-06     -1.79188 
        1000     0.333332  0.000126626  -3.4723e-06     -1.79188 
        1000         0.48  6.56993e-05 -5.44228e-07     -1.79188 
        1000     0.653331 -3.56564e-05  5.03657e-06     -1.79188 
        1000     0.853332 -0.000130715  1.09996e-05     -1.79188 
        1000         1.08 -0.000222362  1.45075e-05     -1.79188 
        1000      1.33333 -0.000328559  1.43369e-05     -1.79188 
        1000      1.61333 -0.000415615  1.24617e-05     -1.79188 
        1000         1.92 -0.000433929  1.20664e-05     -1.79188 
        1000      2.25333 -0.000417322  1.34496e-05     -1.79189 
        1000      2.61333 -0.000395215  1.58912e-05     -1.79189 
        1000            3 -0.000371379  1.87344e-05     -1.79189 
