Variables = x, y, u, v, p

Zone, I=416, F=POINT
         -50            0 -1.35634e-19 -6.41977e-24     -12.7788 
         -50     0.013333 -0.000145075 -1.27163e-08     -12.7788 
         -50     0.053333 -0.000169554  7.86312e-08     -12.7788 
         -50         0.12 -0.000194644   4.7261e-07     -12.7788 
         -50     0.213332 -0.000221992  9.40195e-07     -12.7788 
         -50     0.333332 -0.000240468  1.14034e-06     -12.7788 
         -50         0.48 -0.000249872  2.27049e-06     -12.7788 
         -50     0.653331  -0.00025034  9.88113e-07     -12.7787 
         -50     0.853332  -0.00023981  8.38417e-07     -12.7787 
         -50         1.08 -0.000219626   4.8748e-07     -12.7786 
         -50      1.33333 -0.000193904  6.11197e-08     -12.7784 
         -50      1.61333 -0.000163962 -3.71167e-07     -12.7783 
         -50         1.92 -0.000138587 -1.53107e-06     -12.7781 
         -50      2.25333 -0.000123449 -3.08044e-06     -12.7778 
         -50      2.61333 -0.000115786 -4.73921e-06     -12.7774 
         -50            3 -0.000111272 -5.96469e-06      -12.777 
         -25            0           -0           -0     -12.2649 
         -25     0.013333 -0.000105749 -1.05493e-08     -12.2649 
         -25     0.053333 -0.000119722 -7.17906e-08     -12.2649 
         -25         0.12 -0.000126344 -3.12462e-07     -12.2649 
         -25     0.213332 -0.000129433 -9.54257e-07     -12.2649 
         -25     0.333332 -0.000128287 -2.09386e-06     -12.2649 
         -25         0.48 -0.000126408 -3.62178e-06     -12.2649 
         -25     0.653331 -0.000123767  -5.0357e-06     -12.2649 
         -25     0.853332 -0.000117681  -6.3094e-06     -12.2649 
         -25         1.08 -0.000109665 -7.35724e-06     -12.2648 
         -25      1.33333 -0.000104899 -7.88745e-06     -12.2648 
         -25      1.61333 -0.000102444 -8.07222e-06     -12.2647 
         -25         1.92 -9.95958e-05 -8.23037e-06     -12.2646 
         -25      2.25333 -9.28958e-05 -7.15115e-06     -12.2645 
         -25      2.61333 -8.98805e-05 -8.29369e-06     -12.2644 
         -25            3 -9.62233e-05 -1.37891e-05     -12.2642 
           0            0            0            0     -11.8476 
           0     0.013333 -0.000241235  0.000131569     -11.8481 
           0     0.053333 -0.000134856  7.70308e-05     -11.8487 
           0         0.12 -6.66043e-05  5.08131e-05     -11.8494 
           0     0.213332 -2.58787e-05  3.75338e-05     -11.8502 
           0     0.333332 -1.82283e-06  2.81033e-05     -11.8509 
           0         0.48  1.16248e-05  2.15124e-05     -11.8517 
           0     0.653331  1.78058e-05  1.66891e-05     -11.8524 
           0     0.853332  1.42213e-05   1.2885e-05      -11.853 
           0         1.08  2.82933e-07  9.63678e-06     -11.8537 
           0      1.33333 -1.81635e-05   6.9294e-06     -11.8543 
           0      1.61333 -3.83737e-05  4.72399e-06     -11.8548 
           0         1.92 -6.16415e-05  2.95928e-06     -11.8553 
           0      2.25333 -8.76068e-05  1.35343e-06     -11.8558 
           0      2.61333  -0.00010705  6.45427e-07     -11.8562 
           0            3 -0.000113753  6.25332e-07     -11.8566 
          20            0            0            0     -11.5781 
          20     0.013333 -8.93131e-05 -2.31155e-08     -11.5781 
          20     0.053333 -0.000112565 -3.30099e-07     -11.5781 
          20         0.12 -0.000117934 -1.60798e-06     -11.5781 
          20     0.213332 -0.000101698 -4.66316e-06     -11.5781 
          20     0.333332 -7.42752e-05  -9.7863e-06     -11.5781 
          20         0.48  -5.1872e-05 -1.65323e-05     -11.5781 
          20     0.653331 -3.75841e-05 -2.41106e-05     -11.5781 
          20     0.853332 -3.23908e-05 -3.19392e-05     -11.5781 
          20         1.08 -3.72721e-05 -3.96118e-05     -11.5781 
          20      1.33333  -4.5117e-05 -4.61696e-05     -11.5781 
          20      1.61333 -5.28118e-05 -5.07991e-05      -11.578 
          20         1.92 -5.69273e-05  -5.2739e-05      -11.578 
          20      2.25333 -6.31644e-05  -5.2487e-05     -11.5779 
          20      2.61333 -6.73862e-05 -4.92733e-05     -11.5779 
          20            3 -6.29428e-05 -4.29234e-05     -11.5778 
          40            0            0            0     -11.3104 
          40     0.013333 -9.03565e-05 -2.60689e-08     -11.3104 
          40     0.053333 -0.000128142  -4.0396e-07     -11.3104 
          40         0.12 -0.000149882 -1.97635e-06     -11.3104 
          40     0.213332 -0.000146609 -5.65515e-06     -11.3104 
          40     0.333332 -0.000128623  -1.1696e-05     -11.3104 
          40         0.48 -0.000116086 -1.96796e-05     -11.3104 
          40     0.653331 -0.000117609 -2.90013e-05     -11.3104 
          40     0.853332 -0.000125274 -3.87676e-05     -11.3104 
          40         1.08 -0.000124467 -4.78157e-05     -11.3104 
          40      1.33333 -0.000113621 -5.51231e-05     -11.3104 
          40      1.61333 -0.000100343 -6.01107e-05     -11.3104 
          40         1.92  -8.7267e-05 -6.21545e-05     -11.3104 
          40      2.25333 -7.44704e-05 -6.11605e-05     -11.3104 
          40      2.61333 -6.52607e-05 -5.77275e-05     -11.3103 
          40            3 -6.03769e-05  -5.1398e-05     -11.3103 
          60            0           -0           -0     -11.0555 
          60     0.013333 -7.98738e-05 -2.46467e-08     -11.0555 
          60     0.053333 -9.87568e-05 -3.70301e-07     -11.0555 
          60         0.12 -0.000101788 -1.71329e-06     -11.0555 
          60     0.213332 -8.96254e-05   -4.638e-06     -11.0555 
          60     0.333332 -7.32773e-05 -9.13267e-06     -11.0555 
          60         0.48 -6.63636e-05 -1.47515e-05     -11.0555 
          60     0.653331 -7.27057e-05    -2.11e-05     -11.0555 
          60     0.853332  -8.6158e-05  -2.7723e-05     -11.0555 
          60         1.08 -9.33741e-05 -3.37192e-05     -11.0555 
          60      1.33333  -9.0847e-05 -3.82856e-05     -11.0555 
          60      1.61333 -8.71135e-05 -4.12226e-05     -11.0555 
          60         1.92  -8.4191e-05 -4.22633e-05     -11.0555 
          60      2.25333 -8.39487e-05 -4.15223e-05     -11.0555 
          60      2.61333  -8.3405e-05 -3.88306e-05     -11.0555 
          60            3 -7.89715e-05 -3.46228e-05     -11.0554 
          80            0           -0           -0     -10.8083 
          80     0.013333 -8.74277e-05 -1.57511e-08     -10.8083 
          80     0.053333  -0.00012977 -2.70711e-07     -10.8083 
          80         0.12 -0.000156325 -1.47498e-06     -10.8083 
          80     0.213332 -0.000148745 -4.67354e-06     -10.8083 
          80     0.333332  -0.00011147 -1.05274e-05     -10.8083 
          80         0.48  -6.9953e-05 -1.88455e-05     -10.8083 
          80     0.653331  -4.4166e-05 -2.89389e-05     -10.8083 
          80     0.853332 -3.76357e-05  -3.9986e-05     -10.8083 
          80         1.08  -3.9951e-05  -5.0965e-05     -10.8083 
          80      1.33333 -4.11838e-05 -6.06836e-05     -10.8083 
          80      1.61333 -4.29221e-05 -6.82865e-05     -10.8083 
          80         1.92 -4.85248e-05 -7.30997e-05     -10.8083 
          80      2.25333 -5.64815e-05 -7.43926e-05     -10.8083 
          80      2.61333 -6.00613e-05 -7.21396e-05     -10.8083 
          80            3 -5.67016e-05 -6.73536e-05     -10.8082 
         100            0            0            0      -10.566 
         100     0.013333 -0.000100957  4.44255e-08      -10.566 
         100     0.053333 -0.000196372  5.88586e-07      -10.566 
         100         0.12 -0.000320575  2.11896e-06      -10.566 
         100     0.213332 -0.000429842  4.01706e-06      -10.566 
         100     0.333332 -0.000488195  4.74062e-06      -10.566 
         100         0.48 -0.000501693  3.23244e-06      -10.566 
         100     0.653331 -0.000491457  -2.2674e-07      -10.566 
         100     0.853332 -0.000459877 -4.26206e-06      -10.566 
         100         1.08 -0.000400852 -7.86726e-06      -10.566 
         100      1.33333  -0.00032395 -1.07997e-05      -10.566 
         100      1.61333 -0.000239898 -1.33013e-05      -10.566 
         100         1.92 -0.000152078   -1.525e-05      -10.566 
         100      2.25333 -7.16551e-05 -1.62598e-05      -10.566 
         100      2.61333 -1.14421e-05 -1.66925e-05      -10.566 
         100            3  1.99294e-05 -1.70782e-05      -10.566 
         150            0           -0           -0     -9.97158 
         150     0.013333 -4.17424e-05  3.58451e-08     -9.97158 
         150     0.053333  8.04179e-06   5.9001e-07     -9.97158 
         150         0.12  3.86278e-05  2.97607e-06     -9.97158 
         150     0.213332  1.23824e-05  8.82908e-06     -9.97158 
         150     0.333332 -5.36143e-05   1.8949e-05     -9.97158 
         150         0.48 -0.000118291  3.28028e-05     -9.97158 
         150     0.653331 -0.000154299  4.92395e-05     -9.97158 
         150     0.853332 -0.000159792  6.70935e-05     -9.97157 
         150         1.08 -0.000149716  8.50958e-05     -9.97157 
         150      1.33333 -0.000138334  0.000101786     -9.97157 
         150      1.61333 -0.000128064  0.000115799     -9.97157 
         150         1.92 -0.000115605  0.000125754     -9.97157 
         150      2.25333 -0.000101769  0.000130698     -9.97157 
         150      2.61333 -8.62172e-05  0.000130432     -9.97157 
         150            3 -6.91129e-05  0.000125635     -9.97157 
         200            0 -1.09759e-19 -2.98672e-26     -9.38479 
         200     0.013333 -4.22023e-05  3.44128e-08     -9.38479 
         200     0.053333  8.53965e-06  5.40377e-07     -9.38479 
         200         0.12  5.18503e-05  2.57016e-06     -9.38479 
         200     0.213332  5.78722e-05  7.20584e-06     -9.38479 
         200     0.333332  3.72488e-05  1.48259e-05     -9.38479 
         200         0.48  1.43028e-05  2.51326e-05     -9.38479 
         200     0.653331   6.6046e-06  3.77328e-05     -9.38479 
         200     0.853332  1.69246e-05  5.21072e-05     -9.38479 
         200         1.08  2.76556e-05  6.69104e-05     -9.38479 
         200      1.33333  1.88427e-05   8.0231e-05     -9.38479 
         200      1.61333 -3.48762e-06  9.09476e-05     -9.38479 
         200         1.92 -2.79604e-05  9.85216e-05     -9.38479 
         200      2.25333 -5.25161e-05  0.000102062     -9.38479 
         200      2.61333 -7.33961e-05  0.000101491     -9.38479 
         200            3 -8.63717e-05  9.72371e-05     -9.38479 
         250            0           -0           -0     -8.80091 
         250     0.013333 -7.27089e-05 -9.65232e-08     -8.80091 
         250     0.053333 -6.50448e-05 -1.44698e-06     -8.80091 
         250         0.12  1.11372e-05 -6.47399e-06     -8.80091 
         250     0.213332   0.00014537 -1.69306e-05     -8.80091 
         250     0.333332  0.000276657 -3.22716e-05     -8.80091 
         250         0.48  0.000350796 -5.04431e-05     -8.80091 
         250     0.653331  0.000358579 -6.99607e-05     -8.80091 
         250     0.853332  0.000315755 -9.03626e-05     -8.80091 
         250         1.08  0.000249092 -0.000110681     -8.80091 
         250      1.33333  0.000185074  -0.00012912     -8.80091 
         250      1.61333  0.000123991 -0.000144255     -8.80091 
         250         1.92   5.6317e-05 -0.000155057     -8.80091 
         250      2.25333 -1.47586e-05 -0.000160525     -8.80091 
         250      2.61333 -7.95942e-05 -0.000159957     -8.80092 
         250            3 -0.000129089 -0.000153736     -8.80092 
         300            0           -0           -0     -8.21845 
         300     0.013333 -0.000103238 -1.29395e-07     -8.21845 
         300     0.053333 -0.000163805 -1.97873e-06     -8.21845 
         300         0.12 -0.000141172 -9.12609e-06     -8.21845 
         300     0.213332 -7.91358e-06 -2.47949e-05     -8.21845 
         300     0.333332  0.000168075 -4.93055e-05     -8.21845 
         300         0.48  0.000296076 -8.03344e-05     -8.21845 
         300     0.653331  0.000337948 -0.000115487     -8.21845 
         300     0.853332  0.000302207 -0.000153489     -8.21845 
         300         1.08   0.00022465 -0.000192636     -8.21845 
         300      1.33333  0.000154025  -0.00022965     -8.21845 
         300      1.61333   0.00010367 -0.000261343     -8.21846 
         300         1.92  5.19703e-05   -0.0002857     -8.21846 
         300      2.25333 -4.38377e-06 -0.000300653     -8.21846 
         300      2.61333 -5.95948e-05 -0.000304748     -8.21846 
         300            3 -0.000105584 -0.000297921     -8.21847 
         350            0           -0           -0       -7.637 
         350     0.013333   -0.0001736 -5.21053e-09       -7.637 
         350     0.053333 -0.000445335 -2.63404e-07       -7.637 
         350         0.12 -0.000735326 -2.38116e-06       -7.637 
         350     0.213332 -0.000904298 -9.94796e-06       -7.637 
         350     0.333332 -0.000908999   -2.651e-05       -7.637 
         350         0.48 -0.000823611 -5.28825e-05       -7.637 
         350     0.653331 -0.000742766 -8.70361e-05       -7.637 
         350     0.853332 -0.000697703 -0.000125527       -7.637 
         350         1.08 -0.000650929 -0.000164316       -7.637 
         350      1.33333 -0.000561278 -0.000199779       -7.637 
         350      1.61333 -0.000441996 -0.000230285       -7.637 
         350         1.92 -0.000318322 -0.000254965     -7.63699 
         350      2.25333 -0.000191622 -0.000271662     -7.63698 
         350      2.61333 -6.93743e-05 -0.000278993     -7.63697 
         350            3  3.21477e-05 -0.000276562     -7.63696 
         400            0           -0           -0     -7.05567 
         400     0.013333 -4.58758e-05  1.41973e-07     -7.05567 
         400     0.053333 -3.59455e-05  2.12496e-06     -7.05567 
         400         0.12  -0.00011549   9.5422e-06     -7.05567 
         400     0.213332 -0.000304502  2.52899e-05     -7.05567 
         400     0.333332  -0.00052216  4.93174e-05     -7.05567 
         400         0.48 -0.000679277  7.92279e-05     -7.05567 
         400     0.653331 -0.000743286  0.000112847     -7.05567 
         400     0.853332 -0.000720356  0.000149589     -7.05567 
         400         1.08 -0.000628602  0.000189151     -7.05567 
         400      1.33333 -0.000510583  0.000229339     -7.05567 
         400      1.61333 -0.000408258  0.000266345     -7.05567 
         400         1.92 -0.000313761  0.000297212     -7.05567 
         400      2.25333 -0.000215117  0.000319889     -7.05566 
         400      2.61333 -0.000116633   0.00033229     -7.05566 
         400            3 -3.04705e-05   0.00033336     -7.05565 
         450            0 -5.02017e-20 -2.12917e-27     -6.47449 
         450     0.013333 -2.58063e-05 -1.05111e-07     -6.47449 
         450     0.053333  0.000104371 -1.49701e-06      -6.4745 
         450         0.12  0.000328893 -6.21887e-06      -6.4745 
         450     0.213332  0.000579749 -1.48917e-05     -6.47449 
         450     0.333332  0.000768458 -2.57555e-05     -6.47449 
         450         0.48  0.000854311 -3.63102e-05     -6.47449 
         450     0.653331  0.000858932 -4.55325e-05     -6.47449 
         450     0.853332  0.000812408 -5.43209e-05     -6.47449 
         450         1.08  0.000721126 -6.41668e-05     -6.47449 
         450      1.33333  0.000594198 -7.53149e-05     -6.47449 
         450      1.61333  0.000457948 -8.63378e-05      -6.4745 
         450         1.92  0.000321289 -9.57502e-05      -6.4745 
         450      2.25333  0.000177659 -0.000102791     -6.47451 
         450      2.61333  3.21915e-05  -0.00010689     -6.47452 
         450            3 -9.89806e-05  -0.00010769     -6.47453 
         500            0            0            0     -5.89471 
         500     0.013333 -0.000136769  5.65542e-09     -5.89471 
         500     0.053333 -0.000319724 -3.35199e-08     -5.89471 
         500         0.12 -0.000522572 -9.17677e-07     -5.89471 
         500     0.213332 -0.000655085 -4.77073e-06     -5.89471 
         500     0.333332 -0.000680612 -1.38753e-05     -5.89471 
         500         0.48 -0.000642053 -2.88482e-05     -5.89471 
         500     0.653331 -0.000602361 -4.83811e-05     -5.89471 
         500     0.853332 -0.000584353 -7.02056e-05     -5.89471 
         500         1.08 -0.000561018 -9.16088e-05     -5.89471 
         500      1.33333 -0.000498494 -0.000110298     -5.89471 
         500      1.61333 -0.000407108 -0.000125676     -5.89471 
         500         1.92 -0.000315664 -0.000138138      -5.8947 
         500      2.25333 -0.000223814 -0.000147197      -5.8947 
         500      2.61333  -0.00013193 -0.000151959     -5.89469 
         500            3 -4.83264e-05 -0.000151895     -5.89468 
         550            0           -0           -0     -5.31501 
         550     0.013333 -3.84133e-05  1.21001e-07     -5.31501 
         550     0.053333 -6.47923e-06  1.84492e-06     -5.31501 
         550         0.12 -5.70235e-05   8.4997e-06     -5.31501 
         550     0.213332 -0.000226896  2.31445e-05     -5.31501 
         550     0.333332 -0.000444149  4.61959e-05     -5.31501 
         550         0.48 -0.000609529  7.54112e-05     -5.31501 
         550     0.653331 -0.000677289  0.000108249     -5.31501 
         550     0.853332 -0.000654801  0.000143548     -5.31501 
         550         1.08 -0.000570903  0.000180671     -5.31501 
         550      1.33333 -0.000472228   0.00021757     -5.31501 
         550      1.61333 -0.000395619  0.000251279     -5.31501 
         550         1.92 -0.000328125  0.000279826     -5.31501 
         550      2.25333 -0.000254046  0.000301999     -5.31501 
         550      2.61333 -0.000174405  0.000315954       -5.315 
         550            3 -9.82915e-05  0.000320225       -5.315 
         600            0           -0           -0     -4.73565 
         600     0.013333 -9.72935e-05 -9.75871e-08     -4.73565 
         600     0.053333 -0.000152044 -1.47614e-06     -4.73565 
         600         0.12  -0.00014344  -6.7505e-06     -4.73565 
         600     0.213332 -4.12129e-05 -1.83492e-05     -4.73565 
         600     0.333332   0.00011469 -3.68734e-05     -4.73565 
         600         0.48   0.00025415 -6.10916e-05     -4.73565 
         600     0.653331  0.000335878 -8.94518e-05     -4.73565 
         600     0.853332  0.000351331 -0.000121294     -4.73565 
         600         1.08  0.000304809 -0.000156526     -4.73565 
         600      1.33333  0.000221697 -0.000193944     -4.73565 
         600      1.61333  0.000147175 -0.000230585     -4.73565 
         600         1.92  9.54221e-05 -0.000263467     -4.73565 
         600      2.25333  4.72683e-05 -0.000290792     -4.73565 
         600      2.61333  -4.2637e-06 -0.000310744     -4.73565 
         600            3  -5.3751e-05 -0.000321702     -4.73566 
         650            0            0            0     -4.15692 
         650     0.013333 -2.29124e-05   1.2899e-08     -4.15692 
         650     0.053333  8.25555e-05  2.41895e-07     -4.15692 
         650         0.12   0.00020156  1.41974e-06     -4.15692 
         650     0.213332  0.000272037  4.85826e-06     -4.15692 
         650     0.333332  0.000276113  1.18173e-05     -4.15692 
         650         0.48  0.000238814  2.26764e-05     -4.15692 
         650     0.653331  0.000198593   3.6825e-05     -4.15692 
         650     0.853332  0.000175917   5.3207e-05     -4.15692 
         650         1.08  0.000166694  7.07087e-05     -4.15692 
         650      1.33333  0.000154572  8.82283e-05     -4.15692 
         650      1.61333  0.000129164  0.000104836     -4.15692 
         650         1.92  9.34503e-05  0.000119591     -4.15692 
         650      2.25333  5.34423e-05  0.000132031     -4.15692 
         650      2.61333  1.14148e-05  0.000141214     -4.15693 
         650            3 -3.12224e-05  0.000146271     -4.15693 
         700            0            0            0     -3.57876 
         700     0.013333 -0.000124866  3.23429e-08     -3.57876 
         700     0.053333 -0.000289549  4.17897e-07     -3.57876 
         700         0.12 -0.000505034  1.42811e-06     -3.57876 
         700     0.213332 -0.000698982   2.3098e-06     -3.57876 
         700     0.333332 -0.000806015  1.28545e-06     -3.57877 
         700         0.48 -0.000819526 -3.22974e-06     -3.57877 
         700     0.653331 -0.000780991 -1.15498e-05     -3.57877 
         700     0.853332 -0.000732227 -2.27567e-05     -3.57877 
         700         1.08 -0.000683049 -3.52774e-05     -3.57877 
         700      1.33333 -0.000619355 -4.75613e-05     -3.57877 
         700      1.61333 -0.000535308 -5.89102e-05     -3.57876 
         700         1.92 -0.000442755 -6.91525e-05     -3.57876 
         700      2.25333 -0.000344374 -7.83099e-05     -3.57876 
         700      2.61333  -0.00024083 -8.57212e-05     -3.57875 
         700            3 -0.000137012 -9.06618e-05     -3.57875 
         750            0           -0           -0     -3.00028 
         750     0.013333 -7.93162e-05 -9.25522e-08     -3.00028 
         750     0.053333 -8.60453e-05 -1.40119e-06     -3.00028 
         750         0.12 -1.30886e-05 -6.41705e-06     -3.00028 
         750     0.213332  0.000155188 -1.74546e-05     -3.00028 
         750     0.333332  0.000365783 -3.49826e-05     -3.00028 
         750         0.48  0.000538378 -5.74765e-05     -3.00028 
         750     0.653331  0.000630384  -8.2927e-05     -3.00028 
         750     0.853332  0.000644267 -0.000110255     -3.00028 
         750         1.08  0.000598112 -0.000139252     -3.00028 
         750      1.33333  0.000514749 -0.000169436     -3.00028 
         750      1.61333  0.000422176 -0.000199278     -3.00028 
         750         1.92  0.000336427 -0.000226965     -3.00028 
         750      2.25333  0.000249005 -0.000250888     -3.00028 
         750      2.61333  0.000154951 -0.000269638     -3.00029 
         750            3  5.83285e-05 -0.000281873     -3.00029 
         800            0            0            0     -2.42257 
         800     0.013333  8.48386e-06  1.98227e-08     -2.42257 
         800     0.053333  0.000194256  3.75075e-07     -2.42257 
         800         0.12  0.000406493  2.21584e-06     -2.42257 
         800     0.213332  0.000544005  7.60593e-06     -2.42257 
         800     0.333332  0.000571147  1.85275e-05     -2.42257 
         800         0.48  0.000524095  3.56233e-05     -2.42257 
         800     0.653331  0.000466069  5.80912e-05     -2.42257 
         800     0.853332  0.000436936  8.45195e-05     -2.42257 
         800         1.08  0.000435298  0.000113246     -2.42257 
         800      1.33333  0.000426507  0.000142113     -2.42257 
         800      1.61333  0.000380006  0.000168916     -2.42257 
         800         1.92  0.000305921  0.000192892     -2.42257 
         800      2.25333  0.000224461  0.000213214     -2.42257 
         800      2.61333  0.000140502  0.000229134     -2.42258 
         800            3  5.33913e-05  0.000239617     -2.42258 
         850            0           -0           -0     -1.84552 
         850     0.013333 -8.78169e-05  2.53263e-08     -1.84552 
         850     0.053333  -0.00015406  3.49079e-07     -1.84552 
         850         0.12 -0.000246902  1.37448e-06     -1.84552 
         850     0.213332 -0.000343737  3.05171e-06     -1.84552 
         850     0.333332 -0.000413046   4.7611e-06     -1.84552 
         850         0.48 -0.000445131   5.8326e-06     -1.84552 
         850     0.653331 -0.000452125  6.06682e-06     -1.84552 
         850     0.853332 -0.000449065  5.79466e-06     -1.84552 
         850         1.08  -0.00043732  5.74759e-06     -1.84552 
         850      1.33333 -0.000406118  6.76273e-06     -1.84552 
         850      1.61333 -0.000353182  9.17375e-06     -1.84552 
         850         1.92 -0.000296097  1.22066e-05     -1.84552 
         850      2.25333 -0.000241286  1.53421e-05     -1.84552 
         850      2.61333 -0.000186063  1.81586e-05     -1.84552 
         850            3 -0.000128569  2.05189e-05     -1.84551 
         900            0           -0           -0     -1.26838 
         900     0.013333 -6.82469e-05 -8.69372e-09     -1.26838 
         900     0.053333 -7.37134e-05 -1.29005e-07     -1.26838 
         900         0.12 -6.99724e-05 -5.74381e-07     -1.26838 
         900     0.213332 -6.08514e-05  -1.5155e-06     -1.26838 
         900     0.333332 -4.89513e-05 -2.96061e-06     -1.26838 
         900         0.48 -3.93653e-05 -4.79248e-06     -1.26838 
         900     0.653331  -3.4212e-05 -6.90616e-06     -1.26838 
         900     0.853332 -3.32039e-05 -9.28204e-06     -1.26838 
         900         1.08  -3.6517e-05 -1.20107e-05     -1.26838 
         900      1.33333 -4.46619e-05 -1.51377e-05     -1.26838 
         900      1.61333 -5.49695e-05 -1.85467e-05     -1.26838 
         900         1.92 -6.15315e-05 -2.17797e-05     -1.26838 
         900      2.25333 -6.53691e-05 -2.46444e-05     -1.26838 
         900      2.61333  -6.8182e-05 -2.70535e-05     -1.26838 
         900            3 -7.00615e-05 -2.88075e-05     -1.26838 
         950            0           -0           -0    -0.691677 
         950     0.013333 -6.52741e-05  5.71123e-10    -0.691677 
         950     0.053333 -6.56001e-05  9.11965e-09    -0.691677 
         950         0.12 -6.17125e-05  4.47722e-08    -0.691677 
         950     0.213332 -6.02643e-05  1.31219e-07    -0.691677 
         950     0.333332 -5.99581e-05  2.82507e-07    -0.691677 
         950         0.48 -6.01544e-05  4.96661e-07    -0.691677 
         950     0.653331 -6.03449e-05  7.62893e-07    -0.691677 
         950     0.853332 -6.02837e-05  1.07638e-06    -0.691677 
         950         1.08 -5.98545e-05  1.43104e-06    -0.691677 
         950      1.33333 -5.91879e-05  1.83388e-06    -0.691677 
         950      1.61333 -5.88185e-05  2.18832e-06    -0.691677 
         950         1.92  -5.9478e-05  2.54303e-06    -0.691677 
         950      2.25333 -6.07785e-05  2.79014e-06    -0.691677 
         950      2.61333 -6.23449e-05  2.99965e-06    -0.691677 
         950            3 -6.40066e-05  3.21646e-06    -0.691677 
        1000            0 -6.36577e-20  1.18886e-26    -0.115265 
        1000     0.013333 -6.61514e-05  4.93886e-11    -0.115265 
        1000     0.053333 -6.86144e-05  2.03914e-10    -0.115265 
        1000         0.12  -6.6962e-05  2.48988e-11    -0.115265 
        1000     0.213332 -6.68564e-05 -1.03509e-09    -0.115265 
        1000     0.333332 -6.68293e-05 -3.39727e-09    -0.115265 
        1000         0.48 -6.67397e-05  -7.0684e-09    -0.115265 
        1000     0.653331 -6.66276e-05 -1.08299e-08    -0.115265 
        1000     0.853332 -6.65366e-05 -1.79582e-08    -0.115265 
        1000         1.08 -6.64598e-05 -2.36993e-08    -0.115265 
        1000      1.33333 -6.63676e-05  -4.0718e-08    -0.115265 
        1000      1.61333 -6.62638e-05 -2.97824e-08    -0.115265 
        1000         1.92 -6.61365e-05 -3.22269e-08    -0.115265 
        1000      2.25333 -6.60487e-05 -1.29937e-08    -0.115265 
        1000      2.61333 -6.61886e-05 -3.07005e-08    -0.115265 
        1000            3 -6.67306e-05 -9.85491e-08    -0.115265 
