Variables = x, y, u, v, p

Zone, I=416, F=POINT
         -50            0            0            0      169.398 
         -50     0.013333    0.0005858  1.73092e-07      169.398 
         -50     0.053333   0.00056189  7.83491e-07      169.398 
         -50         0.12  0.000563214  2.41217e-06      169.398 
         -50     0.213332  0.000562649  5.57242e-06      169.398 
         -50     0.333332   0.00056044  1.03656e-05      169.397 
         -50         0.48  0.000561847  1.63802e-05      169.397 
         -50     0.653331  0.000568838  2.31351e-05      169.397 
         -50     0.853332  0.000573261  3.02793e-05      169.396 
         -50         1.08  0.000566911  3.70935e-05      169.395 
         -50      1.33333  0.000551841   4.2346e-05      169.393 
         -50      1.61333  0.000534603  4.67835e-05      169.391 
         -50         1.92  0.000520305  4.80405e-05      169.388 
         -50      2.25333  0.000505254  4.85548e-05      169.384 
         -50      2.61333   0.00050065  5.34861e-05      169.379 
         -50            3  0.000510615  6.36475e-05      169.373 
         -25            0           -0           -0      162.658 
         -25     0.013333  0.000423569  4.76834e-08      162.658 
         -25     0.053333  0.000395779  5.46454e-08      162.658 
         -25         0.12  0.000395116 -1.34104e-07      162.658 
         -25     0.213332  0.000402741 -5.23284e-07      162.658 
         -25     0.333332  0.000408719 -8.86114e-07      162.658 
         -25         0.48  0.000409885 -1.06414e-06      162.658 
         -25     0.653331  0.000408606 -1.02218e-06      162.658 
         -25     0.853332  0.000405407 -7.60503e-07      162.657 
         -25         1.08  0.000400738 -8.02669e-08      162.657 
         -25      1.33333  0.000394613  1.10133e-06      162.656 
         -25      1.61333  0.000389382  2.68464e-06      162.655 
         -25         1.92  0.000386742  4.95594e-06      162.654 
         -25      2.25333  0.000383532  7.07976e-06      162.653 
         -25      2.61333  0.000378738  8.66109e-06      162.651 
         -25            3  0.000374219  1.01109e-05      162.649 
           0            0            0            0      157.044 
           0     0.013333   0.00121582 -0.000759779      157.051 
           0     0.053333  0.000759771 -0.000403253      157.062 
           0         0.12  0.000602687 -0.000275368      157.075 
           0     0.213332  0.000538024 -0.000215596      157.089 
           0     0.333332  0.000505987 -0.000179187      157.103 
           0         0.48  0.000478295 -0.000152221      157.117 
           0     0.653331  0.000453303 -0.000131789      157.132 
           0     0.853332  0.000427837 -0.000115714      157.146 
           0         1.08  0.000401256 -0.000102684       157.16 
           0      1.33333  0.000374973 -9.17759e-05      157.173 
           0      1.61333  0.000348262 -8.23142e-05      157.187 
           0         1.92  0.000322124 -7.35786e-05      157.199 
           0      2.25333  0.000304225 -6.53349e-05      157.211 
           0      2.61333  0.000293163 -5.77756e-05      157.223 
           0            3  0.000288437 -4.93224e-05      157.234 
          20            0 -8.82912e-05  0.000281133      153.942 
          20     0.013333 -9.09772e-05  0.000281468      153.941 
          20     0.053333 -0.000100603  0.000281954      153.941 
          20         0.12 -0.000121525  0.000281137       153.94 
          20     0.213332 -0.000160036  0.000276887      153.939 
          20     0.333332 -0.000222001  0.000266715      153.937 
          20         0.48 -0.000301693  0.000248395      153.935 
          20     0.653331 -0.000361726  0.000221663      153.932 
          20     0.853332  -0.00034735  0.000189234      153.929 
          20         1.08 -0.000243003  0.000154604      153.925 
          20      1.33333  -8.3161e-05  0.000119952      153.921 
          20      1.61333  9.86026e-05  8.66107e-05      153.916 
          20         1.92  0.000278678  5.65197e-05       153.91 
          20      2.25333  0.000422388   3.1048e-05      153.904 
          20      2.61333    0.0005029  1.02098e-05      153.898 
          20            3  0.000523134 -6.75906e-06      153.891 
          40            0           -0           -0      150.368 
          40     0.013333  0.000275622  1.22911e-07      150.368 
          40     0.053333  0.000146301  1.32994e-06      150.368 
          40         0.12 -3.80773e-06  4.29414e-06      150.368 
          40     0.213332 -0.000136466  7.72125e-06      150.368 
          40     0.333332 -0.000247329  1.06091e-05      150.368 
          40         0.48 -0.000348854  1.48808e-05      150.368 
          40     0.653331  -0.00040978  2.47361e-05      150.368 
          40     0.853332 -0.000398284  4.21767e-05      150.367 
          40         1.08 -0.000310768  6.40481e-05      150.367 
          40      1.33333 -0.000148491  8.81608e-05      150.367 
          40      1.61333  3.57619e-05  0.000111082      150.367 
          40         1.92  0.000205036  0.000129239      150.366 
          40      2.25333  0.000335965  0.000141401      150.366 
          40      2.61333  0.000419605  0.000147166      150.365 
          40            3   0.00045884  0.000148345      150.365 
          60            0           -0           -0      147.019 
          60     0.013333  0.000312149 -2.59068e-07      147.019 
          60     0.053333  0.000402218 -3.89044e-06      147.019 
          60         0.12  0.000684049 -1.67941e-05      147.019 
          60     0.213332   0.00107795 -4.16963e-05      147.019 
          60     0.333332   0.00141226 -7.49879e-05      147.019 
          60         0.48   0.00159108 -0.000111467      147.019 
          60     0.653331   0.00160164 -0.000150684      147.019 
          60     0.853332   0.00144318 -0.000195601      147.019 
          60         1.08   0.00119613 -0.000242836      147.019 
          60      1.33333   0.00096265 -0.000283521      147.019 
          60      1.61333  0.000724255 -0.000311839      147.019 
          60         1.92  0.000467221 -0.000324974      147.018 
          60      2.25333  0.000238591 -0.000321887      147.018 
          60      2.61333  8.19673e-05 -0.000303499      147.018 
          60            3  8.88431e-06 -0.000274922      147.018 
          80            0           -0           -0      143.793 
          80     0.013333  0.000185323 -2.10632e-07      143.793 
          80     0.053333 -4.11716e-05 -3.33317e-06      143.793 
          80         0.12 -0.000150036 -1.57074e-05      143.793 
          80     0.213332 -5.32102e-05 -4.35422e-05      143.793 
          80     0.333332  0.000159139 -8.86118e-05      143.793 
          80         0.48   0.00032533 -0.000148856      143.793 
          80     0.653331  0.000331849 -0.000221788      143.793 
          80     0.853332  0.000186675 -0.000302899      143.793 
          80         1.08  5.67444e-05  -0.00038175      143.793 
          80      1.33333  5.77654e-05 -0.000447445      143.793 
          80      1.61333  0.000113975 -0.000495687      143.793 
          80         1.92   0.00016094 -0.000523617      143.793 
          80      2.25333  0.000202004 -0.000527629      143.793 
          80      2.61333  0.000236367 -0.000509914      143.793 
          80            3  0.000256309 -0.000475998      143.792 
         100            0  3.00915e-19  1.44802e-24      140.638 
         100     0.013333  0.000228757 -1.82894e-09      140.638 
         100     0.053333  6.90204e-05 -1.50381e-07      140.638 
         100         0.12  -0.00010082  -1.1913e-06      140.638 
         100     0.213332 -0.000237227 -4.45288e-06      140.638 
         100     0.333332 -0.000329824 -1.09668e-05      140.638 
         100         0.48  -0.00039694 -2.09986e-05      140.638 
         100     0.653331  -0.00044822 -3.39337e-05      140.638 
         100     0.853332 -0.000450672 -4.70629e-05      140.638 
         100         1.08  -0.00035084 -5.61906e-05      140.638 
         100      1.33333 -0.000192158 -6.01137e-05      140.638 
         100      1.61333 -5.47655e-05 -6.15347e-05      140.638 
         100         1.92  8.25117e-05 -6.06027e-05      140.638 
         100      2.25333  0.000214558 -5.61258e-05      140.638 
         100      2.61333  0.000316535 -4.94797e-05      140.638 
         100            3  0.000371683 -4.19754e-05      140.638 
         150            0  3.46351e-19  4.70539e-25      132.909 
         150     0.013333  0.000366124   2.9614e-08      132.909 
         150     0.053333  0.000558567  6.25277e-07      132.909 
         150         0.12  0.000757979  4.00712e-06      132.909 
         150     0.213332  0.000840273  1.40757e-05      132.909 
         150     0.333332  0.000800381  3.37579e-05      132.909 
         150         0.48  0.000721792  6.27189e-05      132.909 
         150     0.653331  0.000672592  9.81312e-05      132.909 
         150     0.853332  0.000648446  0.000136005      132.909 
         150         1.08  0.000603617  0.000172241      132.909 
         150      1.33333  0.000523583  0.000203539      132.909 
         150      1.61333  0.000431193  0.000228253      132.909 
         150         1.92   0.00033781  0.000244585      132.909 
         150      2.25333   0.00024963  0.000250412      132.909 
         150      2.61333  0.000177357  0.000246032      132.909 
         150            3  0.000132913   0.00023315      132.909 
         200            0           -0           -0      125.278 
         200     0.013333  0.000304713  1.82904e-07      125.278 
         200     0.053333  0.000314604  2.71036e-06      125.278 
         200         0.12  0.000242802  1.19653e-05      125.278 
         200     0.213332  7.29732e-05  3.09651e-05      125.278 
         200     0.333332 -0.000107985  5.89285e-05      125.278 
         200         0.48 -0.000220482   9.3121e-05      125.278 
         200     0.653331 -0.000238027  0.000132142      125.278 
         200     0.853332  -0.00016302  0.000175922      125.278 
         200         1.08 -4.05441e-05  0.000221919      125.278 
         200      1.33333  5.51771e-05  0.000264394      125.278 
         200      1.61333  0.000120027  0.000298812      125.278 
         200         1.92  0.000186252  0.000322931      125.278 
         200      2.25333  0.000251714   0.00033455      125.278 
         200      2.61333   0.00030577  0.000332661      125.278 
         200            3  0.000340616  0.000318617      125.278 
         250            0           -0           -0       117.68 
         250     0.013333  0.000206498  3.77489e-09       117.68 
         250     0.053333  1.81819e-05  -1.0426e-07       117.68 
         250         0.12 -0.000158209 -1.49445e-06       117.68 
         250     0.213332 -0.000233347 -7.01663e-06       117.68 
         250     0.333332 -0.000192371  -1.9421e-05       117.68 
         250         0.48 -0.000102782 -3.89597e-05       117.68 
         250     0.653331 -3.06398e-05 -6.34133e-05       117.68 
         250     0.853332  1.43264e-05 -8.96077e-05       117.68 
         250         1.08  5.94002e-05 -0.000114832       117.68 
         250      1.33333  0.000115064 -0.000137501       117.68 
         250      1.61333  0.000169645 -0.000157029       117.68 
         250         1.92  0.000221687 -0.000172244       117.68 
         250      2.25333  0.000270515 -0.000181395       117.68 
         250      2.61333  0.000310237 -0.000183902       117.68 
         250            3  0.000334301 -0.000179901       117.68 
         300            0            0            0      110.093 
         300     0.013333   0.00010805 -1.71596e-08      110.093 
         300     0.053333 -0.000321438 -6.04281e-07      110.093 
         300         0.12  -0.00074693 -4.91046e-06      110.093 
         300     0.213332 -0.000952619 -1.94469e-05      110.093 
         300     0.333332 -0.000906417  -4.9862e-05      110.093 
         300         0.48 -0.000758214 -9.62692e-05      110.093 
         300     0.653331 -0.000653625 -0.000153868      110.093 
         300     0.853332 -0.000606504 -0.000215676      110.093 
         300         1.08 -0.000527342 -0.000274339      110.093 
         300      1.33333  -0.00037193 -0.000324996      110.093 
         300      1.61333 -0.000194415 -0.000367024      110.093 
         300         1.92 -2.14245e-05 -0.000399221      110.093 
         300      2.25333  0.000148378 -0.000418107      110.093 
         300      2.61333  0.000302836 -0.000422101      110.093 
         300            3  0.000422991 -0.000411142      110.093 
         350            0            0            0      102.509 
         350     0.013333  2.93577e-05   3.4719e-08      102.509 
         350     0.053333  -0.00061302   4.1181e-08      102.509 
         350         0.12  -0.00130642 -2.89861e-06      102.509 
         350     0.213332   -0.0017166 -1.69684e-05      102.509 
         350     0.333332  -0.00173533 -5.09563e-05      102.509 
         350         0.48  -0.00153685 -0.000107061      102.509 
         350     0.653331  -0.00134563 -0.000180023      102.509 
         350     0.853332  -0.00122502 -0.000260686      102.509 
         350         1.08  -0.00107597 -0.000338972      102.509 
         350      1.33333  -0.00082525 -0.000407816      102.509 
         350      1.61333 -0.000536518 -0.000466212      102.509 
         350         1.92 -0.000255101 -0.000513372      102.509 
         350      2.25333   2.4802e-05 -0.000544845      102.509 
         350      2.61333  0.000288921 -0.000557871       102.51 
         350            3  0.000505705 -0.000551552       102.51 
         400            0           -0           -0      94.9265 
         400     0.013333  0.000228709  3.54336e-07      94.9265 
         400     0.053333 -4.03526e-06  5.14666e-06      94.9265 
         400         0.12 -0.000480522  2.20794e-05      94.9265 
         400     0.213332  -0.00111257  5.53049e-05      94.9265 
         400     0.333332  -0.00165758  0.000101377      94.9265 
         400         0.48  -0.00195638  0.000153186      94.9265 
         400     0.653331  -0.00201896  0.000206791      94.9265 
         400     0.853332  -0.00190109  0.000263641      94.9265 
         400         1.08   -0.0016224  0.000326575      94.9265 
         400      1.33333   -0.0012527  0.000393138      94.9265 
         400      1.61333 -0.000903434  0.000455147      94.9265 
         400         1.92 -0.000571033  0.000506275      94.9265 
         400      2.25333 -0.000227621  0.000543062      94.9266 
         400      2.61333  0.000110277  0.000562371      94.9266 
         400            3  0.000402056  0.000562614      94.9266 
         450            0            0            0      87.3442 
         450     0.013333  0.000528664   -2.879e-07      87.3442 
         450     0.053333   0.00123884 -3.90267e-06      87.3442 
         450         0.12   0.00226027 -1.47984e-05      87.3442 
         450     0.213332   0.00321457 -3.04627e-05      87.3442 
         450     0.333332    0.0037663 -4.10812e-05      87.3442 
         450         0.48   0.00387511 -3.76086e-05      87.3442 
         450     0.653331   0.00373178 -1.90871e-05      87.3442 
         450     0.853332   0.00348856  8.00901e-06      87.3442 
         450         1.08   0.00315317  3.55837e-05      87.3442 
         450      1.33333   0.00271352  5.96378e-05      87.3442 
         450      1.61333   0.00221991  8.09323e-05      87.3441 
         450         1.92   0.00170295  0.000100613      87.3441 
         450      2.25333    0.0011579  0.000117452      87.3441 
         450      2.61333  0.000610045  0.000130225      87.3441 
         450            3   0.00011483  0.000138127       87.344 
         500            0            0            0      79.7569 
         500     0.013333 -4.03291e-05 -2.26281e-07      79.7569 
         500     0.053333 -0.000796565 -3.85296e-06      79.7569 
         500         0.12  -0.00147183 -2.02939e-05      79.7569 
         500     0.213332  -0.00167736 -6.27598e-05      79.7569 
         500     0.333332  -0.00142294 -0.000139638      79.7569 
         500         0.48  -0.00103534 -0.000248829      79.7569 
         500     0.653331  -0.00081237 -0.000381852      79.7569 
         500     0.853332  -0.00082871 -0.000529624      79.7569 
         500         1.08 -0.000934346 -0.000680991      79.7569 
         500      1.33333 -0.000895427 -0.000821924      79.7569 
         500      1.61333 -0.000676959 -0.000943295      79.7569 
         500         1.92 -0.000432224  -0.00104346      79.7569 
         500      2.25333 -0.000192209  -0.00111735      79.7569 
         500      2.61333  4.47661e-05  -0.00115887      79.7569 
         500            3  0.000264952  -0.00116387      79.7569 
         550            0           -0           -0      72.1691 
         550     0.013333  0.000255636  2.77014e-07      72.1691 
         550     0.053333  0.000114109  4.00989e-06      72.1691 
         550         0.12 -0.000200855  1.71244e-05      72.1691 
         550     0.213332 -0.000639586  4.27258e-05      72.1691 
         550     0.333332  -0.00102892  7.82603e-05      72.1691 
         550         0.48  -0.00125525  0.000118876      72.1691 
         550     0.653331  -0.00132664  0.000162634      72.1691 
         550     0.853332  -0.00127024  0.000212032      72.1691 
         550         1.08  -0.00106452  0.000271059      72.1691 
         550      1.33333 -0.000748083  0.000338463      72.1691 
         550      1.61333 -0.000466877  0.000405259      72.1691 
         550         1.92 -0.000260214  0.000463386      72.1691 
         550      2.25333 -6.36965e-05  0.000510001      72.1691 
         550      2.61333  0.000138815  0.000542303      72.1691 
         550            3  0.000322983  0.000557622      72.1692 
         600            0           -0           -0      64.5806 
         600     0.013333   0.00038479 -4.91463e-08      64.5806 
         600     0.053333  0.000661552  -5.9426e-07      64.5806 
         600         0.12   0.00103092  -1.7073e-06      64.5806 
         600     0.213332   0.00132589  -1.3551e-06      64.5806 
         600     0.333332   0.00143349  4.25248e-06      64.5806 
         600         0.48   0.00136496  1.80412e-05      64.5806 
         600     0.653331   0.00121822  4.01487e-05      64.5806 
         600     0.853332   0.00107969  6.85624e-05      64.5806 
         600         1.08  0.000974736  0.000100574      64.5806 
         600      1.33333   0.00087484  0.000133141      64.5806 
         600      1.61333  0.000749716  0.000163587      64.5806 
         600         1.92   0.00061538  0.000191051      64.5806 
         600      2.25333  0.000479799  0.000214661      64.5806 
         600      2.61333  0.000344566  0.000232984      64.5805 
         600            3  0.000216539  0.000244552      64.5805 
         650            0            0            0      56.9884 
         650     0.013333 -2.20207e-05  4.46171e-07      56.9884 
         650     0.053333   -0.0009454  6.32921e-06      56.9884 
         650         0.12  -0.00235151  2.60175e-05      56.9884 
         650     0.213332  -0.00383836  6.08318e-05      56.9884 
         650     0.333332  -0.00488368  0.000100311      56.9884 
         650         0.48  -0.00526027  0.000130101      56.9884 
         650     0.653331  -0.00513112  0.000143802      56.9884 
         650     0.853332   -0.0047529  0.000145879      56.9884 
         650         1.08  -0.00423498   0.00014516      56.9884 
         650      1.33333  -0.00361569  0.000145612      56.9884 
         650      1.61333   -0.0029704  0.000144738      56.9884 
         650         1.92  -0.00231907  0.000139714      56.9884 
         650      2.25333  -0.00162285  0.000130812      56.9884 
         650      2.61333 -0.000883625  0.000118762      56.9885 
         650            3 -0.000151113  0.000103823      56.9885 
         700            0  3.83144e-19 -3.84007e-27      49.3997 
         700     0.013333  0.000502376 -8.78254e-07      49.3997 
         700     0.053333   0.00134152 -1.28215e-05      49.3997 
         700         0.12   0.00302096 -5.54447e-05      49.3997 
         700     0.213332   0.00521105 -0.000140046      49.3997 
         700     0.333332     0.007144 -0.000257848      49.3997 
         700         0.48   0.00825342 -0.000388091      49.3997 
         700     0.653331   0.00853642 -0.000516726      49.3997 
         700     0.853332   0.00825216 -0.000645238      49.3997 
         700         1.08   0.00753947 -0.000783955      49.3997 
         700      1.33333   0.00650049 -0.000935563      49.3997 
         700      1.61333   0.00539176  -0.00108765      49.3997 
         700         1.92   0.00437102  -0.00122412      49.3997 
         700      2.25333   0.00332502  -0.00133626      49.3996 
         700      2.61333   0.00220739  -0.00141816      49.3996 
         700            3   0.00108326   -0.0014636      49.3995 
         750            0           -0           -0      41.8016 
         750     0.013333  0.000478225  7.59815e-07      41.8016 
         750     0.053333  0.000754286  1.15179e-05      41.8016 
         750         0.12  0.000525956  5.28001e-05      41.8016 
         750     0.213332 -0.000466753   0.00014369      41.8016 
         750     0.333332  -0.00184563  0.000288241      41.8016 
         750         0.48   -0.0030009  0.000474888      41.8016 
         750     0.653331  -0.00359931  0.000689192      41.8016 
         750     0.853332  -0.00362993  0.000924765      41.8016 
         750         1.08    -0.003189   0.00118144      41.8016 
         750      1.33333  -0.00247722   0.00145275      41.8016 
         750      1.61333  -0.00182293   0.00171984      41.8016 
         750         1.92  -0.00137193   0.00196213      41.8016 
         750      2.25333  -0.00096348   0.00216871      41.8017 
         750      2.61333 -0.000519012   0.00232785      41.8017 
         750            3 -7.02546e-05   0.00242774      41.8017 
         800            0            0            0      34.2043 
         800     0.013333 -0.000161481 -1.69404e-07      34.2043 
         800     0.053333  -0.00126467   -2.974e-06      34.2043 
         800         0.12  -0.00243865 -1.63555e-05      34.2043 
         800     0.213332  -0.00313428 -5.32426e-05      34.2043 
         800     0.333332  -0.00316808 -0.000125181      34.2043 
         800         0.48  -0.00278342 -0.000235307      34.2043 
         800     0.653331   -0.0023604 -0.000378383      34.2043 
         800     0.853332  -0.00213295 -0.000546191      34.2043 
         800         1.08  -0.00210842 -0.000729972      34.2043 
         800      1.33333  -0.00210856 -0.000918302      34.2043 
         800      1.61333  -0.00193276  -0.00109749      34.2043 
         800         1.92  -0.00157917  -0.00125854      34.2043 
         800      2.25333  -0.00116918  -0.00139678      34.2043 
         800      2.61333 -0.000747426  -0.00150568      34.2043 
         800            3 -0.000310967  -0.00157757      34.2044 
         850            0           -0           -0      26.6069 
         850     0.013333  0.000413107 -2.82158e-07      26.6069 
         850     0.053333  0.000841891 -4.05393e-06      26.6069 
         850         0.12   0.00159797 -1.71226e-05      26.6069 
         850     0.213332   0.00249987 -4.20354e-05      26.6069 
         850     0.333332   0.00326043 -7.49727e-05      26.6069 
         850         0.48   0.00370009 -0.000109011      26.6069 
         850     0.653331   0.00384512 -0.000139948      26.6069 
         850     0.853332   0.00380591 -0.000168827      26.6069 
         850         1.08   0.00362689 -0.000200368      26.6069 
         850      1.33333   0.00329046 -0.000238701      26.6069 
         850      1.61333   0.00283507 -0.000283237      26.6069 
         850         1.92    0.0023679 -0.000328676      26.6069 
         850      2.25333   0.00190182 -0.000370024      26.6069 
         850      2.61333   0.00141612  -0.00040484      26.6068 
         850            3  0.000909824 -0.000431285      26.6068 
         900            0            0            0      19.0051 
         900     0.013333  0.000321423   1.8356e-07      19.0051 
         900     0.053333   0.00036762  2.78559e-06      19.0051 
         900         0.12  0.000307868  1.27446e-05      19.0051 
         900     0.213332  8.50088e-05  3.44394e-05      19.0051 
         900     0.333332 -0.000196229  6.81658e-05      19.0051 
         900         0.48 -0.000384937  0.000110252      19.0051 
         900     0.653331 -0.000414975  0.000156922      19.0051 
         900     0.853332 -0.000306625  0.000207243      19.0051 
         900         1.08 -0.000103284  0.000261758      19.0051 
         900      1.33333  0.000122758  0.000318668      19.0051 
         900      1.61333  0.000272837  0.000372754      19.0051 
         900         1.92   0.00032136  0.000419738      19.0051 
         900      2.25333  0.000340269  0.000458171      19.0051 
         900      2.61333  0.000363198  0.000487193      19.0051 
         900            3  0.000383201  0.000505123      19.0051 
         950            0            0            0      11.4039 
         950     0.013333  6.26025e-05 -2.95711e-07      11.4039 
         950     0.053333 -0.000402661 -4.70756e-06      11.4039 
         950         0.12 -0.000654615  -2.3202e-05      11.4039 
         950     0.213332 -0.000382536 -6.83586e-05      11.4039 
         950     0.333332  0.000339762 -0.000147693      11.4039 
         950         0.48   0.00113114 -0.000258486      11.4039 
         950     0.653331   0.00164633 -0.000391086      11.4039 
         950     0.853332   0.00178277 -0.000536212      11.4039 
         950         1.08   0.00163925 -0.000687358      11.4039 
         950      1.33333   0.00141066 -0.000837572      11.4039 
         950      1.61333   0.00125856  -0.00097913      11.4039 
         950         1.92   0.00117598  -0.00110731      11.4039 
         950      2.25333   0.00107697  -0.00122005      11.4039 
         950      2.61333  0.000937105  -0.00131223      11.4039 
         950            3  0.000776178   -0.0013772      11.4039 
        1000            0            0            0      3.80371 
        1000     0.013333  0.000764624  -3.8045e-07      3.80371 
        1000     0.053333   0.00216519 -5.26714e-06      3.80371 
        1000         0.12   0.00423467 -2.06043e-05      3.80371 
        1000     0.213332   0.00634384 -4.44406e-05      3.80371 
        1000     0.333332   0.00781113 -6.39693e-05      3.80372 
        1000         0.48    0.0083743 -6.43051e-05      3.80372 
        1000     0.653331   0.00828971 -3.95721e-05      3.80372 
        1000     0.853332   0.00795578  4.61413e-06      3.80372 
        1000         1.08   0.00753134  5.51905e-05      3.80372 
        1000      1.33333   0.00692287  9.89315e-05      3.80372 
        1000      1.61333   0.00608463   0.00013042      3.80372 
        1000         1.92   0.00517589   0.00015463       3.8037 
        1000      2.25333   0.00425859  0.000176922      3.80368 
        1000      2.61333   0.00330005  0.000196803      3.80364 
        1000            3   0.00227591  0.000211938      3.80358 
