Variables = x, y, u, v, p

Zone, I=416, F=POINT
         -50            0            0            0      41.0939 
         -50     0.013333  0.000264469  4.73456e-08      41.0939 
         -50     0.053333  0.000253592  1.54445e-07      41.0939 
         -50         0.12   0.00025366  2.82765e-07      41.0939 
         -50     0.213332  0.000256588  5.00516e-07      41.0939 
         -50     0.333332  0.000255724  1.22566e-06      41.0938 
         -50         0.48  0.000252047  2.39889e-06      41.0938 
         -50     0.653331  0.000247928  3.19346e-06      41.0936 
         -50     0.853332  0.000242765  4.37088e-06      41.0934 
         -50         1.08  0.000236583  5.08907e-06      41.0931 
         -50      1.33333  0.000232127  6.29592e-06      41.0927 
         -50      1.61333  0.000232158  7.50021e-06      41.0922 
         -50         1.92  0.000231368  8.22035e-06      41.0915 
         -50      2.25333  0.000232696  1.03555e-05      41.0906 
         -50      2.61333  0.000239332  1.49562e-05      41.0894 
         -50            3  0.000244703  1.89022e-05       41.088 
         -25            0           -0           -0       39.452 
         -25     0.013333     0.000195  3.06428e-08       39.452 
         -25     0.053333  0.000186975  2.37185e-07       39.452 
         -25         0.12  0.000179895  9.02951e-07       39.452 
         -25     0.213332  0.000167421  2.30211e-06       39.452 
         -25     0.333332   0.00014958  4.52766e-06       39.452 
         -25         0.48  0.000133214  7.59969e-06       39.452 
         -25     0.653331  0.000125969  1.15336e-05      39.4519 
         -25     0.853332  0.000129839   1.5918e-05      39.4518 
         -25         1.08  0.000138925   2.0391e-05      39.4517 
         -25      1.33333  0.000148572   2.4347e-05      39.4516 
         -25      1.61333  0.000158604  2.72121e-05      39.4514 
         -25         1.92  0.000165122  2.85825e-05      39.4511 
         -25      2.25333  0.000169639    2.867e-05      39.4508 
         -25      2.61333  0.000175117  2.91757e-05      39.4503 
         -25            3   0.00018009  3.04957e-05      39.4498 
           0            0            0            0      38.0839 
           0     0.013333  0.000585653 -0.000354724      38.0859 
           0     0.053333  0.000362885   -0.0001907      38.0887 
           0         0.12  0.000281771 -0.000127755      38.0918 
           0     0.213332  0.000246468 -9.87383e-05      38.0952 
           0     0.333332  0.000226696 -7.99116e-05      38.0987 
           0         0.48  0.000211155 -6.46671e-05      38.1022 
           0     0.653331  0.000199924 -5.19231e-05      38.1057 
           0     0.853332  0.000190545 -4.08848e-05      38.1092 
           0         1.08  0.000179783 -3.12937e-05      38.1127 
           0      1.33333  0.000168423 -2.31508e-05       38.116 
           0      1.61333  0.000158679 -1.64668e-05      38.1192 
           0         1.92  0.000149608 -1.12192e-05      38.1223 
           0      2.25333  0.000140645 -7.71551e-06      38.1253 
           0      2.61333  0.000134941 -4.14499e-06      38.1281 
           0            3  0.000136773  -1.1464e-07      38.1307 
          20            0  9.62708e-05  0.000206563      37.3289 
          20     0.013333  0.000104975  0.000205632      37.3289 
          20     0.053333   0.00013128  0.000202548      37.3288 
          20         0.12  0.000175169  0.000196495      37.3285 
          20     0.213332  0.000234004  0.000186249      37.3282 
          20     0.333332  0.000297616  0.000170287      37.3278 
          20         0.48  0.000346743  0.000147182      37.3272 
          20     0.653331  0.000369104  0.000117054      37.3266 
          20     0.853332  0.000373203  8.23877e-05      37.3258 
          20         1.08  0.000371788  4.64745e-05      37.3249 
          20      1.33333  0.000365927   1.1986e-05      37.3238 
          20      1.61333   0.00035202 -1.88004e-05      37.3226 
          20         1.92  0.000328347 -4.37626e-05      37.3213 
          20      2.25333  0.000297384 -6.13309e-05      37.3198 
          20      2.61333  0.000270946 -7.10761e-05      37.3183 
          20            3  0.000242363 -7.87409e-05      37.3166 
          40            0           -0           -0      36.4577 
          40     0.013333   -0.0001174 -2.25792e-07      36.4577 
          40     0.053333  -0.00069208  -4.2448e-06      36.4577 
          40         0.12  -0.00110911 -2.34577e-05      36.4577 
          40     0.213332  -0.00111775 -7.27231e-05      36.4577 
          40     0.333332 -0.000914422 -0.000158155      36.4577 
          40         0.48 -0.000815064 -0.000273506      36.4577 
          40     0.653331 -0.000840226 -0.000405202      36.4576 
          40     0.853332 -0.000810835 -0.000539754      36.4576 
          40         1.08  -0.00070827 -0.000671224      36.4576 
          40      1.33333 -0.000502284  -0.00078288      36.4575 
          40      1.61333 -0.000220886 -0.000856923      36.4575 
          40         1.92  5.05658e-05 -0.000885544      36.4574 
          40      2.25333   0.00026348 -0.000867771      36.4573 
          40      2.61333  0.000392992  -0.00081395      36.4572 
          40            3  0.000442413 -0.000734963       36.457 
          60            0           -0           -0      35.6418 
          60     0.013333  3.64223e-05 -4.52102e-07      35.6418 
          60     0.053333 -0.000105384 -6.83091e-06      35.6418 
          60         0.12 -7.30058e-06 -3.04651e-05      35.6418 
          60     0.213332   0.00034484 -7.87892e-05      35.6418 
          60     0.333332  0.000709061 -0.000148727      35.6418 
          60         0.48  0.000880405 -0.000233587      35.6418 
          60     0.653331  0.000777974 -0.000332755      35.6418 
          60     0.853332   0.00043758 -0.000445948      35.6418 
          60         1.08   0.00012542 -0.000558187      35.6417 
          60      1.33333  3.96246e-05 -0.000648483      35.6417 
          60      1.61333  5.23373e-05 -0.000707842      35.6417 
          60         1.92  4.79175e-05 -0.000732237      35.6416 
          60      2.25333  3.46573e-05 -0.000719352      35.6416 
          60      2.61333  2.95449e-05 -0.000674815      35.6415 
          60            3  3.56588e-05 -0.000608332      35.6414 
          80            0           -0           -0      34.8555 
          80     0.013333  2.97818e-05 -2.61161e-07      34.8555 
          80     0.053333 -0.000166276 -4.02912e-06      34.8555 
          80         0.12  -0.00022242 -1.86553e-05      34.8555 
          80     0.213332 -5.24108e-05 -5.08458e-05      34.8555 
          80     0.333332  0.000225286 -0.000101826      34.8555 
          80         0.48   0.00043528 -0.000168481      34.8555 
          80     0.653331  0.000461466 -0.000248171      34.8555 
          80     0.853332  0.000288168 -0.000338152      34.8555 
          80         1.08  8.20525e-05 -0.000428289      34.8554 
          80      1.33333  3.03451e-05  -0.00050335      34.8554 
          80      1.61333  5.87299e-05 -0.000556676      34.8554 
          80         1.92  7.23164e-05 -0.000586241      34.8554 
          80      2.25333  8.01178e-05 -0.000588841      34.8554 
          80      2.61333  8.67035e-05 -0.000566783      34.8553 
          80            3  8.72648e-05 -0.000526539      34.8553 
         100            0  8.74744e-20  4.61906e-25       34.086 
         100     0.013333 -2.62194e-05  1.88022e-08       34.086 
         100     0.053333  -0.00042219 -8.70428e-08       34.086 
         100         0.12  -0.00084132 -2.63998e-06       34.086 
         100     0.213332  -0.00107862 -1.35255e-05       34.086 
         100     0.333332  -0.00109497 -3.85638e-05       34.086 
         100         0.48  -0.00101096 -7.88584e-05       34.086 
         100     0.653331 -0.000936932 -0.000130325      34.0859 
         100     0.853332 -0.000851908 -0.000184897      34.0859 
         100         1.08 -0.000677219 -0.000234715      34.0859 
         100      1.33333 -0.000442561 -0.000275627      34.0859 
         100      1.61333 -0.000221352 -0.000307298      34.0859 
         100         1.92 -5.64365e-06 -0.000327041      34.0859 
         100      2.25333  0.000188289 -0.000331595      34.0859 
         100      2.61333  0.000332714 -0.000322184      34.0859 
         100            3  0.000410287 -0.000301754      34.0859 
         150            0  9.29002e-20  1.59606e-25       32.202 
         150     0.013333 -3.46431e-06 -8.02489e-08       32.202 
         150     0.053333 -0.000315077  -1.4333e-06       32.202 
         150         0.12 -0.000598555 -7.86642e-06       32.202 
         150     0.213332 -0.000698038 -2.50226e-05       32.202 
         150     0.333332 -0.000621594 -5.67539e-05       32.202 
         150         0.48 -0.000493109 -0.000102733       32.202 
         150     0.653331 -0.000416477 -0.000159778       32.202 
         150     0.853332  -0.00039968 -0.000223006       32.202 
         150         1.08 -0.000369686 -0.000285916       32.202 
         150      1.33333 -0.000276678  -0.00034173       32.202 
         150      1.61333 -0.000150068 -0.000386478       32.202 
         150         1.92 -2.30646e-05 -0.000417076       32.202 
         150      2.25333  9.63182e-05 -0.000429936       32.202 
         150      2.61333  0.000196136 -0.000425033       32.202 
         150            3  0.000261501 -0.000404694       32.202 
         200            0           -0           -0      30.3427 
         200     0.013333  2.69302e-05  2.07038e-08      30.3427 
         200     0.053333 -0.000233721  1.43222e-07      30.3427 
         200         0.12 -0.000528093 -4.37516e-07      30.3427 
         200     0.213332 -0.000724601 -4.51258e-06      30.3427 
         200     0.333332 -0.000769804  -1.5607e-05      30.3427 
         200         0.48  -0.00071351 -3.54796e-05      30.3427 
         200     0.653331 -0.000638105 -6.33396e-05      30.3427 
         200     0.853332 -0.000579575 -9.64678e-05      30.3427 
         200         1.08  -0.00050959 -0.000130998      30.3427 
         200      1.33333 -0.000394159 -0.000162724      30.3427 
         200      1.61333  -0.00024927 -0.000189426      30.3427 
         200         1.92 -9.78474e-05 -0.000209726      30.3427 
         200      2.25333  4.73901e-05 -0.000221394      30.3427 
         200      2.61333  0.000171236 -0.000224062      30.3427 
         200            3  0.000260902 -0.000217991      30.3428 
         250            0           -0           -0      28.4926 
         250     0.013333  9.77771e-05  9.17973e-08      28.4926 
         250     0.053333  2.15536e-06  1.24659e-06      28.4926 
         250         0.12 -0.000141527   4.8367e-06      28.4926 
         250     0.213332 -0.000289633  1.07956e-05      28.4926 
         250     0.333332 -0.000401939  1.78341e-05      28.4926 
         250         0.48 -0.000475008  2.52315e-05      28.4926 
         250     0.653331 -0.000516401  3.38219e-05      28.4926 
         250     0.853332 -0.000504035  4.59638e-05      28.4926 
         250         1.08 -0.000408766   6.3612e-05      28.4926 
         250      1.33333 -0.000270825  8.51307e-05      28.4926 
         250      1.61333 -0.000150978  0.000106106      28.4926 
         250         1.92 -3.96251e-05    0.0001241      28.4926 
         250      2.25333  6.81587e-05  0.000138049      28.4926 
         250      2.61333  0.000162313  0.000146607      28.4926 
         250            3  0.000228822  0.000149397      28.4926 
         300            0            0            0      26.6463 
         300     0.013333  0.000166525 -1.23554e-07      26.6463 
         300     0.053333  0.000295143 -1.73328e-06      26.6463 
         300         0.12   0.00051226 -6.99375e-06      26.6463 
         300     0.213332  0.000736163 -1.60104e-05      26.6463 
         300     0.333332  0.000870404 -2.61103e-05      26.6463 
         300         0.48     0.000894 -3.45275e-05      26.6463 
         300     0.653331  0.000847787 -4.10262e-05      26.6463 
         300     0.853332   0.00075897 -4.76295e-05      26.6463 
         300         1.08   0.00063414 -5.57553e-05      26.6463 
         300      1.33333  0.000505578 -6.40577e-05      26.6463 
         300      1.61333  0.000396051 -7.02409e-05      26.6463 
         300         1.92  0.000285987 -7.38845e-05      26.6463 
         300      2.25333  0.000173965  -7.4966e-05      26.6462 
         300      2.61333  7.04406e-05 -7.32376e-05      26.6462 
         300            3 -1.13727e-05  -6.8914e-05      26.6462 
         350            0            0            0      24.8011 
         350     0.013333  4.67338e-05 -2.19122e-07      24.8011 
         350     0.053333   -9.516e-05 -3.40224e-06      24.8011 
         350         0.12 -9.17176e-05  -1.6026e-05      24.8011 
         350     0.213332   0.00013795 -4.45336e-05      24.8011 
         350     0.333332  0.000471347 -9.03184e-05      24.8011 
         350         0.48  0.000723446 -0.000149176      24.8011 
         350     0.653331  0.000808805 -0.000215721      24.8011 
         350     0.853332   0.00075175 -0.000286298      24.8011 
         350         1.08  0.000629585  -0.00035744      24.8011 
         350      1.33333  0.000518631 -0.000424437      24.8011 
         350      1.61333   0.00043528 -0.000482818      24.8011 
         350         1.92  0.000350336 -0.000529054      24.8011 
         350      2.25333  0.000258001   -0.0005593      24.8011 
         350      2.61333  0.000166922 -0.000570634      24.8011 
         350            3  8.90902e-05 -0.000562228      24.8011 
         400            0           -0           -0      22.9562 
         400     0.013333 -0.000225898  9.58347e-09      22.9562 
         400     0.053333  -0.00111624 -5.06475e-07      22.9562 
         400         0.12  -0.00207788 -6.49353e-06      22.9562 
         400     0.213332  -0.00262396 -3.00359e-05      22.9562 
         400     0.333332  -0.00261214  -8.3458e-05      22.9562 
         400         0.48   -0.0023039 -0.000169296      22.9562 
         400     0.653331  -0.00202763  -0.00027941      22.9562 
         400     0.853332  -0.00187477 -0.000400612      22.9562 
         400         1.08  -0.00170121 -0.000518854      22.9562 
         400      1.33333   -0.0013876 -0.000624298      22.9562 
         400      1.61333  -0.00100892 -0.000715039      22.9562 
         400         1.92 -0.000638382 -0.000789854      22.9562 
         400      2.25333 -0.000266945 -0.000842599      22.9562 
         400      2.61333   9.1675e-05 -0.000868363      22.9562 
         400            3  0.000397275 -0.000864912      22.9563 
         450            0            0            0      21.1127 
         450     0.013333 -6.21852e-05  6.54979e-07      21.1127 
         450     0.053333 -0.000720742  9.34385e-06      21.1127 
         450         0.12  -0.00187127   3.8851e-05      21.1127 
         450     0.213332  -0.00317644  9.29662e-05      21.1127 
         450     0.333332  -0.00412045  0.000160622      21.1127 
         450         0.48  -0.00448301  0.000227046      21.1127 
         450     0.653331  -0.00440385  0.000288047      21.1127 
         450     0.853332   -0.0040385  0.000351514      21.1127 
         450         1.08  -0.00341684  0.000426242      21.1127 
         450      1.33333   -0.0026703  0.000508346      21.1127 
         450      1.61333  -0.00200732  0.000583537      21.1127 
         450         1.92  -0.00139545  0.000643177      21.1127 
         450      2.25333 -0.000762652  0.000684726      21.1128 
         450      2.61333 -0.000129635  0.000705028      21.1128 
         450            3   0.00043077  0.000701946      21.1129 
         500            0            0            0       19.273 
         500     0.013333  0.000606981  2.47039e-07       19.273 
         500     0.053333   0.00175663  4.40224e-06       19.273 
         500         0.12   0.00288395  2.43446e-05       19.273 
         500     0.213332   0.00335921  7.85125e-05       19.273 
         500     0.333332   0.00310397  0.000180701       19.273 
         500         0.48   0.00254373  0.000330648       19.273 
         500     0.653331   0.00213536  0.000517606       19.273 
         500     0.853332   0.00203921  0.000728315       19.273 
         500         1.08   0.00208525   0.00094662       19.273 
         500      1.33333   0.00196132   0.00115277       19.273 
         500      1.61333   0.00159928   0.00133321       19.273 
         500         1.92   0.00119432   0.00148428       19.273 
         500      2.25333  0.000791211   0.00159858       19.273 
         500      2.61333  0.000393211   0.00166676       19.273 
         500            3  2.64064e-05   0.00168222      19.2729 
         550            0           -0           -0      17.4317 
         550     0.013333 -7.34954e-05 -2.98703e-07      17.4317 
         550     0.053333 -0.000509318 -4.62731e-06      17.4317 
         550         0.12 -0.000817822 -2.18462e-05      17.4317 
         550     0.213332 -0.000772761 -6.14205e-05      17.4317 
         550     0.333332 -0.000444314 -0.000127441      17.4317 
         550         0.48 -6.78447e-05  -0.00021728      17.4317 
         550     0.653331  0.000173717 -0.000325999      17.4317 
         550     0.853332  0.000211878 -0.000450461      17.4317 
         550         1.08  6.73075e-05 -0.000587929      17.4317 
         550      1.33333 -0.000124206 -0.000730415      17.4317 
         550      1.61333 -0.000197165 -0.000864782      17.4317 
         550         1.92 -0.000168152 -0.000981563      17.4317 
         550      2.25333 -0.000117805  -0.00107483      17.4317 
         550      2.61333 -6.80464e-05  -0.00113832      17.4317 
         550            3 -1.06954e-05  -0.00116671      17.4317 
         600            0           -0           -0      15.5926 
         600     0.013333  0.000286987  6.88685e-09      15.5926 
         600     0.053333  0.000696763  2.92915e-07      15.5926 
         600         0.12   0.00117866  2.61094e-06      15.5926 
         600     0.213332   0.00151602  1.11773e-05      15.5926 
         600     0.333332   0.00160388  3.09453e-05      15.5926 
         600         0.48   0.00150592  6.42858e-05      15.5927 
         600     0.653331   0.00136024  0.000109758      15.5927 
         600     0.853332    0.0012529  0.000163629      15.5927 
         600         1.08    0.0011778  0.000221538      15.5927 
         600      1.33333   0.00108427  0.000279442      15.5926 
         600      1.61333  0.000946233  0.000334217      15.5926 
         600         1.92  0.000775394  0.000383548      15.5926 
         600      2.25333  0.000586704  0.000424646      15.5926 
         600      2.61333  0.000389511   0.00045477      15.5926 
         600            3   0.00019552  0.000471688      15.5926 
         650            0            0            0      13.7532 
         650     0.013333 -6.00667e-06  4.57172e-08      13.7532 
         650     0.053333 -0.000363756  5.06847e-07      13.7532 
         650         0.12 -0.000808783  1.11265e-06      13.7532 
         650     0.213332  -0.00117231 -6.78813e-07      13.7532 
         650     0.333332  -0.00135268  -8.6899e-06      13.7532 
         650         0.48  -0.00137758 -2.51216e-05      13.7532 
         650     0.653331  -0.00134496  -4.9206e-05      13.7532 
         650     0.853332  -0.00131861 -7.80767e-05      13.7532 
         650         1.08  -0.00127768 -0.000107521      13.7532 
         650      1.33333  -0.00115831 -0.000133269      13.7532 
         650      1.61333  -0.00095668 -0.000153531      13.7532 
         650         1.92 -0.000736734  -0.00016961      13.7532 
         650      2.25333  -0.00051063 -0.000181992      13.7532 
         650      2.61333  -0.00027613 -0.000189755      13.7532 
         650            3  -4.2849e-05 -0.000191862      13.7532 
         700            0  1.70623e-19  7.76738e-27      11.9162 
         700     0.013333  0.000211579  3.84299e-08      11.9162 
         700     0.053333  0.000412138  7.10469e-07      11.9162 
         700         0.12  0.000606706  4.09954e-06      11.9162 
         700     0.213332   0.00066695   1.3758e-05      11.9162 
         700     0.333332  0.000568015  3.27176e-05      11.9162 
         700         0.48  0.000398259  6.12029e-05      11.9162 
         700     0.653331  0.000263771  9.67483e-05      11.9162 
         700     0.853332  0.000205857  0.000136089      11.9162 
         700         1.08  0.000196614  0.000176186      11.9162 
         700      1.33333  0.000181631   0.00021418      11.9162 
         700      1.61333  0.000139225  0.000248239      11.9162 
         700         1.92  9.73939e-05  0.000277757      11.9162 
         700      2.25333  6.64321e-05  0.000302354      11.9162 
         700      2.61333  4.33052e-05  0.000320226      11.9162 
         700            3  2.53774e-05  0.000329533      11.9162 
         750            0           -0           -0      10.0795 
         750     0.013333 -4.76987e-05  3.59321e-08      10.0795 
         750     0.053333 -0.000514448  3.41826e-07      10.0795 
         750         0.12  -0.00109339  2.20705e-07      10.0795 
         750     0.213332  -0.00156402 -3.65783e-06      10.0795 
         750     0.333332  -0.00178879 -1.61387e-05      10.0795 
         750         0.48  -0.00179476 -4.02683e-05      10.0795 
         750     0.653331  -0.00171061 -7.55711e-05      10.0795 
         750     0.853332  -0.00163796 -0.000118919      10.0795 
         750         1.08  -0.00157742 -0.000165613      10.0795 
         750      1.33333  -0.00145838 -0.000210466      10.0795 
         750      1.61333  -0.00125048 -0.000250472      10.0795 
         750         1.92  -0.00100472   -0.0002857      10.0795 
         750      2.25333 -0.000744784 -0.000315807      10.0795 
         750      2.61333 -0.000471994 -0.000339197      10.0795 
         750            3  -0.00019199 -0.000353948      10.0795 
         800            0            0            0      8.24519 
         800     0.013333  7.26167e-05  4.18526e-08      8.24519 
         800     0.053333 -8.72964e-05  6.17699e-07      8.24519 
         800         0.12 -0.000318175  2.65862e-06      8.24519 
         800     0.213332  -0.00055544  6.38027e-06      8.24519 
         800     0.333332 -0.000710612  1.02028e-05      8.24519 
         800         0.48 -0.000730765  1.13582e-05      8.24519 
         800     0.653331 -0.000635537  7.95759e-06      8.24519 
         800     0.853332 -0.000485155 -6.70971e-08      8.24519 
         800         1.08 -0.000339491 -1.23362e-05      8.24519 
         800      1.33333 -0.000249946  -2.9612e-05      8.24519 
         800      1.61333 -0.000222367 -5.20304e-05      8.24519 
         800         1.92 -0.000191736 -7.70556e-05      8.24519 
         800      2.25333 -0.000136293 -0.000101743      8.24519 
         800      2.61333 -6.48368e-05 -0.000124637       8.2452 
         800            3   9.9982e-06 -0.000144881       8.2452 
         850            0           -0           -0      6.41195 
         850     0.013333 -2.54024e-05 -2.48811e-07      6.41195 
         850     0.053333 -0.000341282  -3.8895e-06      6.41195 
         850         0.12  -0.00050171  -1.8638e-05      6.41195 
         850     0.213332 -0.000296566 -5.33487e-05      6.41195 
         850     0.333332  0.000207464 -0.000112516      6.41195 
         850         0.48  0.000755821 -0.000193795      6.41195 
         850     0.653331   0.00113178 -0.000291294      6.41195 
         850     0.853332   0.00126058 -0.000400409      6.41195 
         850         1.08   0.00117244 -0.000518417      6.41195 
         850      1.33333  0.000976729 -0.000640715      6.41195 
         850      1.61333  0.000811958 -0.000759678      6.41195 
         850         1.92  0.000711579 -0.000868985      6.41195 
         850      2.25333  0.000614914  -0.00096507      6.41194 
         850      2.61333  0.000497373  -0.00104318      6.41194 
         850            3  0.000370202   -0.0010978      6.41194 
         900            0            0            0      4.57961 
         900     0.013333  0.000179356 -9.42748e-08      4.57961 
         900     0.053333  0.000350906 -1.37127e-06      4.57961 
         900         0.12  0.000664088 -5.96202e-06      4.57961 
         900     0.213332   0.00107787 -1.54431e-05      4.57961 
         900     0.333332   0.00150196 -2.98233e-05      4.57961 
         900         0.48   0.00185133 -4.76812e-05      4.57961 
         900     0.653331   0.00209065  -6.6941e-05      4.57961 
         900     0.853332   0.00223353 -8.59192e-05      4.57961 
         900         1.08   0.00229726  -0.00010466      4.57961 
         900      1.33333   0.00225349 -0.000125654      4.57961 
         900      1.61333   0.00206569  -0.00015173      4.57961 
         900         1.92   0.00178643 -0.000182052      4.57961 
         900      2.25333    0.0014827  -0.00021238      4.57961 
         900      2.61333   0.00116594 -0.000240204       4.5796 
         900            3   0.00082673 -0.000264057      4.57959 
         950            0            0            0      2.74801 
         950     0.013333   0.00015569 -3.24157e-07      2.74801 
         950     0.053333  0.000346887 -4.88577e-06      2.74801 
         950         0.12  0.000895944 -2.23344e-05      2.74801 
         950     0.213332   0.00180791  -6.0555e-05      2.74801 
         950     0.333332   0.00281471 -0.000120499      2.74801 
         950         0.48   0.00357584 -0.000195349      2.74801 
         950     0.653331   0.00393346 -0.000276208      2.74801 
         950     0.853332   0.00394143 -0.000358062      2.74801 
         950         1.08   0.00372185 -0.000440292      2.74801 
         950      1.33333   0.00338033 -0.000522469      2.74801 
         950      1.61333    0.0030017 -0.000601916      2.74801 
         950         1.92   0.00261771 -0.000675263        2.748 
         950      2.25333   0.00219867 -0.000739666      2.74799 
         950      2.61333   0.00172879 -0.000792111      2.74798 
         950            3   0.00122012 -0.000828976      2.74796 
        1000            0            0            0     0.917297 
        1000     0.013333  0.000681712 -1.67267e-07     0.917297 
        1000     0.053333   0.00218944 -1.96913e-06     0.917297 
        1000         0.12    0.0041637 -5.22828e-06     0.917297 
        1000     0.213332   0.00587094 -1.74219e-06     0.917297 
        1000     0.333332   0.00674936  2.35232e-05     0.917298 
        1000         0.48   0.00678385  8.24032e-05       0.9173 
        1000     0.653331   0.00639702  0.000175164     0.917302 
        1000     0.853332   0.00599619  0.000291963     0.917304 
        1000         1.08   0.00567242  0.000418471     0.917305 
        1000      1.33333   0.00526869  0.000541075     0.917304 
        1000      1.61333   0.00467565  0.000652062     0.917299 
        1000         1.92   0.00398473  0.000751554     0.917288 
        1000      2.25333   0.00327127  0.000840786     0.917268 
        1000      2.61333    0.0025296  0.000915947     0.917236 
        1000            3   0.00174145   0.00097141     0.917192 
