Variables = x, y, u, v, p

Zone, I=2080, F=POINT
         -50            0            0            0      94.3648 
         -50      0.00048  3.72314e-05  4.23922e-09      94.3648 
         -50     0.001922  0.000130817  1.61451e-08      94.3648 
         -50     0.004326  0.000235907  3.36406e-08      94.3648 
         -50      0.00769  0.000305848  5.44274e-08      94.3648 
         -50     0.012017  0.000318512  7.71576e-08      94.3648 
         -50     0.017304  0.000288102  1.01962e-07      94.3648 
         -50     0.023553  0.000253671  1.30171e-07      94.3648 
         -50     0.030763  0.000248087  1.63113e-07      94.3648 
         -50     0.038936  0.000268227  2.00913e-07      94.3648 
         -50     0.048069   0.00027668  2.42306e-07      94.3648 
         -50     0.058163  0.000252041  2.86289e-07      94.3648 
         -50     0.069219  0.000245283  3.34033e-07      94.3648 
         -50     0.081236  0.000262272  3.84536e-07      94.3648 
         -50     0.094215  0.000248893  4.35492e-07      94.3648 
         -50     0.108155  0.000248956  4.87636e-07      94.3648 
         -50     0.123056  0.000244874  5.39506e-07      94.3648 
         -50     0.138918  0.000241757  5.89891e-07      94.3647 
         -50     0.155744  0.000240497  6.36707e-07      94.3647 
         -50     0.173529  0.000239455  6.77172e-07      94.3647 
         -50     0.192276    0.0002372  7.08091e-07      94.3647 
         -50     0.211984  0.000234792  7.25788e-07      94.3647 
         -50     0.232655  0.000234569  7.25231e-07      94.3647 
         -50     0.254285  0.000232551  6.97408e-07      94.3647 
         -50     0.276877  0.000231954  6.49675e-07      94.3647 
         -50     0.300431  0.000231146  5.86367e-07      94.3646 
         -50     0.324946  0.000230311  5.04612e-07      94.3646 
         -50     0.350424  0.000229555  4.07194e-07      94.3646 
         -50     0.376861  0.000228906  2.99913e-07      94.3646 
         -50      0.40426  0.000228343  1.88228e-07      94.3645 
         -50     0.432621  0.000227816  7.41514e-08      94.3645 
         -50     0.461945  0.000227288 -4.55005e-08      94.3644 
         -50     0.492228  0.000226751 -1.77575e-07      94.3644 
         -50     0.523472  0.000226247 -3.25306e-07      94.3644 
         -50     0.555678  0.000225833 -4.71721e-07      94.3643 
         -50     0.588845  0.000225498 -5.49333e-07      94.3642 
         -50     0.622976  0.000225112 -4.99122e-07      94.3642 
         -50     0.658066  0.000224878 -5.21873e-07      94.3641 
         -50     0.694117  0.000224799 -5.82708e-07       94.364 
         -50      0.73113  0.000224887 -6.78504e-07       94.364 
         -50     0.769107  0.000225155 -8.01964e-07      94.3639 
         -50     0.808042  0.000225616 -9.42529e-07      94.3638 
         -50     0.847939  0.000226282 -1.08769e-06      94.3637 
         -50     0.888797  0.000227162  -1.2244e-06      94.3636 
         -50      0.93062  0.000228265 -1.34079e-06      94.3634 
         -50       0.9734  0.000229598 -1.42773e-06      94.3633 
         -50      1.01714  0.000231161 -1.48045e-06      94.3632 
         -50      1.06185  0.000232956 -1.49966e-06       94.363 
         -50      1.10751  0.000234977 -1.49205e-06      94.3629 
         -50      1.15414  0.000237218 -1.46981e-06      94.3627 
         -50      1.20173   0.00023967 -1.44871e-06      94.3626 
         -50      1.25028  0.000242325 -1.44422e-06      94.3624 
         -50      1.29979  0.000245177 -1.46509e-06      94.3622 
         -50      1.35026  0.000248229 -1.50355e-06       94.362 
         -50       1.4017  0.000251497 -1.52145e-06      94.3618 
         -50      1.45409  0.000255016 -1.43116e-06      94.3615 
         -50      1.50745  0.000258851 -1.08472e-06      94.3613 
         -50      1.56176  0.000262708 -1.15515e-06       94.361 
         -50      1.61705  0.000266714 -1.04653e-06      94.3608 
         -50      1.67329  0.000270815 -8.11338e-07      94.3605 
         -50      1.73049  0.000274953 -4.96141e-07      94.3602 
         -50      1.78865  0.000279066  -1.4126e-07      94.3599 
         -50      1.84778   0.00028309  2.19483e-07      94.3595 
         -50      1.90786  0.000286957  5.58744e-07      94.3592 
         -50      1.96891  0.000290605  8.55783e-07      94.3588 
         -50      2.03092  0.000293971  1.09612e-06      94.3585 
         -50      2.09389  0.000296999  1.27125e-06      94.3581 
         -50      2.15782  0.000299638  1.37807e-06      94.3577 
         -50      2.22272  0.000301848  1.41835e-06      94.3572 
         -50      2.28857  0.000303597  1.39791e-06      94.3568 
         -50      2.35539  0.000304869  1.32581e-06      94.3563 
         -50      2.42317  0.000305661  1.21336e-06      94.3558 
         -50      2.49191  0.000305984   1.0732e-06      94.3553 
         -50      2.56161  0.000305868  9.18243e-07      94.3548 
         -50      2.63226  0.000305359  7.60751e-07      94.3542 
         -50      2.70389  0.000304519  6.11409e-07      94.3536 
         -50      2.77648  0.000303425  4.78663e-07       94.353 
         -50      2.85002  0.000302168  3.68129e-07      94.3524 
         -50      2.92453  0.000300847   2.8243e-07      94.3517 
         -50            3  0.000299564  2.21387e-07       94.351 
         -25            0           -0           -0      90.5887 
         -25      0.00048  2.72785e-05  1.61288e-09      90.5887 
         -25     0.001922  9.58607e-05  5.91964e-09      90.5887 
         -25     0.004326  0.000172924  1.14649e-08      90.5887 
         -25      0.00769  0.000224336  1.62838e-08      90.5887 
         -25     0.012017  0.000233928  1.83677e-08      90.5887 
         -25     0.017304   0.00021214  1.59171e-08      90.5887 
         -25     0.023553  0.000187609  7.27576e-09      90.5887 
         -25     0.030763  0.000184439 -9.44129e-09      90.5887 
         -25     0.038936   0.00020038 -3.67401e-08      90.5887 
         -25     0.048069  0.000208067 -7.76911e-08      90.5887 
         -25     0.058163  0.000191847 -1.35247e-07      90.5887 
         -25     0.069219  0.000189052 -2.11419e-07      90.5887 
         -25     0.081236  0.000203972  -3.0882e-07      90.5887 
         -25     0.094215  0.000196968 -4.30222e-07      90.5887 
         -25     0.108155  0.000200089 -5.76765e-07      90.5887 
         -25     0.123056  0.000200416  -7.5011e-07      90.5887 
         -25     0.138918  0.000201642 -9.51119e-07      90.5887 
         -25     0.155744  0.000204363 -1.18027e-06      90.5887 
         -25     0.173529  0.000207319 -1.43744e-06      90.5887 
         -25     0.192276    0.0002094 -1.72205e-06      90.5887 
         -25     0.211984  0.000211324 -2.03297e-06      90.5887 
         -25     0.232655  0.000214749 -2.36877e-06      90.5887 
         -25     0.254285  0.000216711 -2.72782e-06      90.5887 
         -25     0.276877  0.000219527 -3.10823e-06      90.5887 
         -25     0.300431   0.00022197 -3.50804e-06      90.5887 
         -25     0.324946   0.00022415 -3.92528e-06      90.5887 
         -25     0.350424  0.000226121 -4.36008e-06      90.5887 
         -25     0.376861  0.000227887 -4.81409e-06      90.5886 
         -25      0.40426  0.000229416 -5.28987e-06      90.5886 
         -25     0.432621  0.000230662 -5.78966e-06      90.5886 
         -25     0.461945  0.000231584 -6.31433e-06      90.5886 
         -25     0.492228  0.000232168 -6.86226e-06      90.5886 
         -25     0.523472  0.000232436 -7.42915e-06      90.5886 
         -25     0.555678  0.000232422  -8.0085e-06      90.5885 
         -25     0.588845  0.000232115 -8.59405e-06      90.5885 
         -25     0.622976  0.000231458 -9.17161e-06      90.5885 
         -25     0.658066  0.000230579 -9.74909e-06      90.5885 
         -25     0.694117  0.000229455 -1.03435e-05      90.5884 
         -25      0.73113  0.000228148 -1.09472e-05      90.5884 
         -25     0.769107  0.000226713 -1.15541e-05      90.5884 
         -25     0.808042  0.000225204 -1.21594e-05      90.5883 
         -25     0.847939  0.000223668 -1.27595e-05      90.5883 
         -25     0.888797  0.000222148 -1.33518e-05      90.5883 
         -25      0.93062  0.000220676 -1.39342e-05      90.5882 
         -25       0.9734  0.000219278 -1.45045e-05      90.5882 
         -25      1.01714  0.000217972 -1.50606e-05      90.5881 
         -25      1.06185  0.000216767 -1.55996e-05      90.5881 
         -25      1.10751  0.000215663 -1.61175e-05       90.588 
         -25      1.15414  0.000214656 -1.66099e-05       90.588 
         -25      1.20173  0.000213733 -1.70711e-05      90.5879 
         -25      1.25028   0.00021288 -1.74962e-05      90.5878 
         -25      1.29979  0.000212081 -1.78816e-05      90.5877 
         -25      1.35026  0.000211322 -1.82275e-05      90.5877 
         -25       1.4017  0.000210595 -1.85413e-05      90.5876 
         -25      1.45409  0.000209902 -1.88423e-05      90.5875 
         -25      1.50745  0.000209266 -1.91601e-05      90.5874 
         -25      1.56176  0.000208731 -1.91757e-05      90.5873 
         -25      1.61705  0.000207834  -1.9309e-05      90.5872 
         -25      1.67329  0.000206663 -1.95116e-05      90.5871 
         -25      1.73049  0.000205303 -1.97393e-05       90.587 
         -25      1.78865   0.00020384 -1.99529e-05      90.5869 
         -25      1.84778  0.000202353 -2.01185e-05      90.5868 
         -25      1.90786  0.000200919 -2.02078e-05      90.5866 
         -25      1.96891  0.000199607 -2.01985e-05      90.5865 
         -25      2.03092  0.000198479 -2.00744e-05      90.5863 
         -25      2.09389  0.000197587 -1.98257e-05      90.5862 
         -25      2.15782  0.000196971 -1.94486e-05       90.586 
         -25      2.22272  0.000196659 -1.89455e-05      90.5859 
         -25      2.28857  0.000196668 -1.83245e-05      90.5857 
         -25      2.35539  0.000196998  -1.7599e-05      90.5855 
         -25      2.42317  0.000197635 -1.67872e-05      90.5853 
         -25      2.49191  0.000198549 -1.59117e-05      90.5851 
         -25      2.56161  0.000199697  -1.4998e-05      90.5849 
         -25      2.63226   0.00020102 -1.40744e-05      90.5847 
         -25      2.70389  0.000202451 -1.31702e-05      90.5845 
         -25      2.77648  0.000203906 -1.23154e-05      90.5843 
         -25      2.85002    0.0002053 -1.15387e-05       90.584 
         -25      2.92453  0.000206544 -1.08665e-05      90.5838 
         -25            3   0.00020755 -1.03219e-05      90.5835 
           0            0  3.26496e-15  -2.1614e-15      87.4615 
           0      0.00048  9.64318e-05 -6.38188e-05      87.4616 
           0     0.001922   0.00033364 -0.000220554      87.4622 
           0     0.004326  0.000584044 -0.000384991      87.4629 
           0      0.00769  0.000719092 -0.000470775      87.4639 
           0     0.012017  0.000686416 -0.000441873       87.465 
           0     0.017304  0.000541674 -0.000334609      87.4661 
           0     0.023553  0.000408486 -0.000232346      87.4672 
           0     0.030763  0.000381032 -0.000201528      87.4683 
           0     0.038936  0.000435586  -0.00023155      87.4695 
           0     0.048069  0.000445797   -0.0002404      87.4708 
           0     0.058163  0.000350552 -0.000180532      87.4721 
           0     0.069219  0.000328192  -0.00015725      87.4733 
           0     0.081236  0.000386038 -0.000190946      87.4747 
           0     0.094215  0.000336717 -0.000156272       87.476 
           0     0.108155  0.000335301 -0.000152375      87.4774 
           0     0.123056  0.000321634 -0.000142502      87.4788 
           0     0.138918  0.000311825 -0.000134284      87.4802 
           0     0.155744  0.000308013 -0.000129124      87.4816 
           0     0.173529  0.000304303 -0.000124641       87.483 
           0     0.192276   0.00029612 -0.000118667      87.4845 
           0     0.211984  0.000287607 -0.000112583      87.4859 
           0     0.232655  0.000286571 -0.000109604      87.4874 
           0     0.254285  0.000278958 -0.000104372      87.4889 
           0     0.276877  0.000274741 -0.000100583      87.4903 
           0     0.300431  0.000270271 -9.68636e-05      87.4918 
           0     0.324946  0.000265891 -9.32881e-05      87.4933 
           0     0.350424  0.000261722 -8.98703e-05      87.4948 
           0     0.376861  0.000257829 -8.66366e-05      87.4963 
           0      0.40426  0.000254206  -8.3557e-05      87.4978 
           0     0.432621   0.00025087 -8.06143e-05      87.4993 
           0     0.461945  0.000247811 -7.77861e-05      87.5008 
           0     0.492228  0.000245046 -7.50744e-05      87.5023 
           0     0.523472   0.00024258 -7.24477e-05      87.5038 
           0     0.555678  0.000240386 -6.99412e-05      87.5053 
           0     0.588845  0.000238474 -6.75226e-05      87.5068 
           0     0.622976  0.000236807 -6.51707e-05      87.5083 
           0     0.658066   0.00023535 -6.28859e-05      87.5097 
           0     0.694117  0.000234041 -6.06743e-05      87.5112 
           0      0.73113   0.00023288 -5.85481e-05      87.5127 
           0     0.769107  0.000231813 -5.65015e-05      87.5142 
           0     0.808042  0.000230761 -5.44967e-05      87.5157 
           0     0.847939  0.000229673 -5.25383e-05      87.5171 
           0     0.888797  0.000228556 -5.06965e-05      87.5186 
           0      0.93062  0.000227321 -4.88561e-05        87.52 
           0       0.9734  0.000226014 -4.71332e-05      87.5215 
           0      1.01714  0.000224588  -4.5469e-05      87.5229 
           0      1.06185  0.000223032 -4.38453e-05      87.5243 
           0      1.10751  0.000221351  -4.2271e-05      87.5257 
           0      1.15414  0.000219574 -4.07499e-05      87.5271 
           0      1.20173  0.000217733 -3.92836e-05      87.5285 
           0      1.25028  0.000215861 -3.78713e-05      87.5299 
           0      1.29979  0.000213987  -3.6511e-05      87.5313 
           0      1.35026  0.000212132 -3.52006e-05      87.5327 
           0       1.4017  0.000210305 -3.39386e-05       87.534 
           0      1.45409  0.000208507 -3.27243e-05      87.5354 
           0      1.50745  0.000206726 -3.15577e-05      87.5367 
           0      1.56176  0.000204953 -3.04385e-05      87.5381 
           0      1.61705  0.000203188 -2.93639e-05      87.5394 
           0      1.67329  0.000201447 -2.83442e-05      87.5407 
           0      1.73049  0.000199719 -2.73869e-05       87.542 
           0      1.78865  0.000197994  -2.6475e-05      87.5433 
           0      1.84778  0.000196267 -2.55997e-05      87.5445 
           0      1.90786  0.000194546 -2.47587e-05      87.5458 
           0      1.96891  0.000192836 -2.39979e-05       87.547 
           0      2.03092  0.000191074 -2.33079e-05      87.5483 
           0      2.09389   0.00018921 -2.26723e-05      87.5495 
           0      2.15782  0.000187212 -2.21063e-05      87.5507 
           0      2.22272  0.000185048 -2.16193e-05      87.5519 
           0      2.28857  0.000182697 -2.12157e-05      87.5531 
           0      2.35539  0.000180148 -2.08936e-05      87.5543 
           0      2.42317  0.000177412 -2.06421e-05      87.5554 
           0      2.49191  0.000174528  -2.0437e-05      87.5565 
           0      2.56161  0.000171574 -2.02328e-05      87.5577 
           0      2.63226  0.000168678 -1.99722e-05      87.5588 
           0      2.70389  0.000165954 -1.96694e-05      87.5599 
           0      2.77648    0.0001635 -1.92173e-05       87.561 
           0      2.85002   0.00016136 -1.85732e-05       87.562 
           0      2.92453  0.000159604 -1.77026e-05      87.5631 
           0            3  0.000158315 -1.65916e-05      87.5641 
          20            0            0            0      85.6423 
          20      0.00048  2.16109e-05  3.71692e-09      85.6423 
          20     0.001922  7.54437e-05  1.54798e-08      85.6423 
          20     0.004326  0.000134263  3.73587e-08      85.6423 
          20      0.00769  0.000169741  7.35394e-08      85.6423 
          20     0.012017  0.000168424  1.31015e-07      85.6423 
          20     0.017304  0.000138937  2.19517e-07      85.6423 
          20     0.023553  0.000105006  3.50838e-07      85.6423 
          20     0.030763  8.66514e-05  5.37137e-07      85.6423 
          20     0.038936  8.21023e-05  7.89379e-07      85.6423 
          20     0.048069  6.88522e-05  1.11631e-06      85.6423 
          20     0.058163  3.41687e-05   1.5254e-06      85.6423 
          20     0.069219  9.30835e-06  2.02381e-06      85.6423 
          20     0.081236 -1.77841e-06  2.61422e-06      85.6423 
          20     0.094215 -3.15115e-05  3.29571e-06      85.6423 
          20     0.108155 -5.28103e-05  4.06688e-06      85.6423 
          20     0.123056 -7.58766e-05  4.92166e-06      85.6423 
          20     0.138918 -9.71293e-05  5.85245e-06      85.6422 
          20     0.155744  -0.00011556  6.84992e-06      85.6422 
          20     0.173529  -0.00013173  7.90308e-06      85.6422 
          20     0.192276  -0.00014615  9.00117e-06      85.6422 
          20     0.211984 -0.000157899  1.01336e-05      85.6422 
          20     0.232655 -0.000165343  1.12911e-05      85.6422 
          20     0.254285 -0.000170736  1.24673e-05      85.6422 
          20     0.276877 -0.000172344  1.36518e-05      85.6422 
          20     0.300431 -0.000171096   1.4822e-05      85.6422 
          20     0.324946 -0.000167237  1.59672e-05      85.6421 
          20     0.350424 -0.000161194  1.70675e-05      85.6421 
          20     0.376861 -0.000153544  1.80956e-05      85.6421 
          20      0.40426 -0.000144967  1.90178e-05      85.6421 
          20     0.432621 -0.000136187  1.97955e-05       85.642 
          20     0.461945 -0.000127902   2.0389e-05       85.642 
          20     0.492228 -0.000120693  2.07602e-05       85.642 
          20     0.523472  -0.00011495  2.08779e-05      85.6419 
          20     0.555678 -0.000110802   2.0722e-05      85.6419 
          20     0.588845 -0.000108088  2.02883e-05      85.6418 
          20     0.622976  -0.00010639  1.95925e-05      85.6418 
          20     0.658066 -0.000105157   1.8672e-05      85.6417 
          20     0.694117 -0.000103729  1.75711e-05      85.6417 
          20      0.73113 -0.000101581   1.6333e-05      85.6416 
          20     0.769107  -9.8245e-05  1.50012e-05      85.6415 
          20     0.808042 -9.34275e-05  1.36138e-05      85.6414 
          20     0.847939 -8.69965e-05  1.22012e-05      85.6414 
          20     0.888797 -7.89623e-05  1.07862e-05      85.6413 
          20      0.93062 -6.94461e-05   9.3831e-06      85.6412 
          20       0.9734  -5.8648e-05  7.99897e-06      85.6411 
          20      1.01714 -4.68015e-05  6.63465e-06       85.641 
          20      1.06185 -3.41429e-05  5.28771e-06      85.6409 
          20      1.10751 -2.08517e-05  3.96089e-06      85.6407 
          20      1.15414 -7.08104e-06  2.65141e-06      85.6406 
          20      1.20173  7.02798e-06  1.35713e-06      85.6405 
          20      1.25028  2.13894e-05  7.85337e-08      85.6403 
          20      1.29979  3.59457e-05 -1.16788e-06      85.6402 
          20      1.35026  5.05923e-05 -2.41666e-06        85.64 
          20       1.4017  6.53222e-05 -3.63245e-06      85.6399 
          20      1.45409  8.00748e-05 -4.81905e-06      85.6397 
          20      1.50745  9.47811e-05 -5.98074e-06      85.6395 
          20      1.56176  0.000109372  -7.1117e-06      85.6393 
          20      1.61705  0.000123778 -8.20277e-06      85.6391 
          20      1.67329  0.000137921 -9.24603e-06      85.6389 
          20      1.73049  0.000151724 -1.02377e-05      85.6387 
          20      1.78865  0.000165114 -1.11882e-05      85.6385 
          20      1.84778  0.000177992   -1.208e-05      85.6382 
          20      1.90786  0.000190215  -1.2901e-05       85.638 
          20      1.96891  0.000201737 -1.37297e-05      85.6377 
          20      2.03092  0.000212527 -1.44788e-05      85.6374 
          20      2.09389  0.000222446 -1.51224e-05      85.6372 
          20      2.15782  0.000231378 -1.57492e-05      85.6369 
          20      2.22272  0.000239327 -1.63343e-05      85.6366 
          20      2.28857  0.000246314 -1.68642e-05      85.6363 
          20      2.35539  0.000252374 -1.73354e-05       85.636 
          20      2.42317  0.000257542 -1.77523e-05      85.6356 
          20      2.49191  0.000261855 -1.81237e-05      85.6353 
          20      2.56161  0.000265351 -1.84593e-05      85.6349 
          20      2.63226  0.000268079 -1.87632e-05      85.6346 
          20      2.70389  0.000270115 -1.90284e-05      85.6342 
          20      2.77648   0.00027155 -1.92325e-05      85.6338 
          20      2.85002  0.000272386 -1.94004e-05      85.6334 
          20      2.92453  0.000272679 -1.95195e-05       85.633 
          20            3  0.000272402 -1.95825e-05      85.6326 
          40            0    1.852e-19  3.71586e-24      83.6484 
          40      0.00048  1.83406e-05  5.22862e-10      83.6484 
          40     0.001922   6.3674e-05  3.73521e-09      83.6484 
          40     0.004326  0.000112017  1.44901e-08      83.6484 
          40      0.00769  0.000138419  4.05907e-08      83.6484 
          40     0.012017  0.000131011  9.24051e-08      83.6484 
          40     0.017304  9.73652e-05  1.82112e-07      83.6484 
          40     0.023553  5.83432e-05   3.2295e-07      83.6484 
          40     0.030763   3.1568e-05  5.28083e-07      83.6484 
          40     0.038936  1.55034e-05   8.0969e-07      83.6484 
          40     0.048069 -9.60065e-06   1.1778e-06      83.6484 
          40     0.058163 -5.48706e-05  1.63993e-06      83.6484 
          40     0.069219 -9.26964e-05  2.20053e-06      83.6484 
          40     0.081236 -0.000119478  2.85991e-06      83.6484 
          40     0.094215 -0.000163589  3.61451e-06      83.6484 
          40     0.108155 -0.000201066  4.45716e-06      83.6484 
          40     0.123056 -0.000240724  5.37642e-06      83.6484 
          40     0.138918 -0.000279271  6.35814e-06      83.6484 
          40     0.155744  -0.00031571  7.38608e-06      83.6484 
          40     0.173529 -0.000350447  8.44188e-06      83.6484 
          40     0.192276 -0.000383871  9.50674e-06      83.6484 
          40     0.211984 -0.000415131  1.05616e-05      83.6484 
          40     0.232655 -0.000442794  1.15892e-05      83.6484 
          40     0.254285 -0.000468894  1.25757e-05      83.6484 
          40     0.276877 -0.000491714  1.35044e-05      83.6484 
          40     0.300431 -0.000512199  1.43661e-05      83.6484 
          40     0.324946 -0.000530391  1.51579e-05      83.6484 
          40     0.350424 -0.000546401   1.5878e-05      83.6484 
          40     0.376861 -0.000560387  1.65265e-05      83.6484 
          40      0.40426 -0.000572534   1.7107e-05      83.6484 
          40     0.432621 -0.000583015   1.7628e-05      83.6484 
          40     0.461945 -0.000591956  1.81029e-05      83.6484 
          40     0.492228 -0.000599414  1.85507e-05      83.6484 
          40     0.523472 -0.000605363  1.89933e-05      83.6484 
          40     0.555678 -0.000609711  1.94514e-05      83.6484 
          40     0.588845  -0.00061236  1.99349e-05      83.6484 
          40     0.622976 -0.000613261  2.04434e-05      83.6484 
          40     0.658066 -0.000612164  2.10562e-05      83.6484 
          40     0.694117 -0.000608902  2.17814e-05      83.6484 
          40      0.73113 -0.000603325  2.26094e-05      83.6484 
          40     0.769107 -0.000595314  2.35361e-05      83.6483 
          40     0.808042 -0.000584787  2.45613e-05      83.6483 
          40     0.847939 -0.000571698  2.56877e-05      83.6483 
          40     0.888797 -0.000556042  2.69189e-05      83.6483 
          40      0.93062 -0.000537854  2.82575e-05      83.6483 
          40       0.9734 -0.000517215  2.97026e-05      83.6483 
          40      1.01714 -0.000494241  3.12482e-05      83.6483 
          40      1.06185 -0.000469092  3.28812e-05      83.6483 
          40      1.10751  -0.00044196  3.45806e-05      83.6483 
          40      1.15414 -0.000413069  3.63178e-05      83.6482 
          40      1.20173  -0.00038268   3.8058e-05      83.6482 
          40      1.25028 -0.000351066  3.97659e-05      83.6482 
          40      1.29979 -0.000318523  4.14124e-05      83.6482 
          40      1.35026 -0.000285354  4.29871e-05      83.6482 
          40       1.4017 -0.000251876  4.45149e-05      83.6482 
          40      1.45409 -0.000218403  4.60809e-05      83.6482 
          40      1.50745 -0.000185235  4.78462e-05      83.6481 
          40      1.56176 -0.000150656  4.90038e-05      83.6481 
          40      1.61705  -0.00011464  5.01437e-05      83.6481 
          40      1.67329 -7.79836e-05  5.12507e-05      83.6481 
          40      1.73049 -4.13806e-05  5.23114e-05       83.648 
          40      1.78865  -5.4271e-06  5.33131e-05       83.648 
          40      1.84778  2.93842e-05  5.42449e-05       83.648 
          40      1.90786  6.26544e-05  5.50966e-05       83.648 
          40      1.96891  9.40936e-05    5.586e-05      83.6479 
          40      2.03092  0.000123503  5.65278e-05      83.6479 
          40      2.09389  0.000150775  5.70945e-05      83.6479 
          40      2.15782  0.000175872  5.75556e-05      83.6478 
          40      2.22272  0.000198835   5.7908e-05      83.6478 
          40      2.28857  0.000219753  5.81497e-05      83.6478 
          40      2.35539  0.000238756  5.82801e-05      83.6477 
          40      2.42317     0.000256  5.82991e-05      83.6477 
          40      2.49191  0.000271644  5.82078e-05      83.6476 
          40      2.56161  0.000285841  5.80079e-05      83.6476 
          40      2.63226  0.000298719  5.77018e-05      83.6476 
          40      2.70389  0.000310369  5.72922e-05      83.6475 
          40      2.77648  0.000320828  5.67825e-05      83.6475 
          40      2.85002  0.000330079  5.61764e-05      83.6474 
          40      2.92453  0.000338046   5.5478e-05      83.6473 
          40            3  0.000344598  5.46918e-05      83.6473 
          60            0           -0           -0      81.7821 
          60      0.00048  1.93336e-05   2.2459e-10      81.7821 
          60     0.001922  6.80574e-05  1.04797e-09      81.7821 
          60     0.004326  0.000123189  2.91826e-09      81.7821 
          60      0.00769  0.000160812  6.57746e-09      81.7821 
          60     0.012017  0.000169562  1.30409e-08      81.7821 
          60     0.017304  0.000156669  2.35099e-08      81.7821 
          60     0.023553  0.000142087  3.92591e-08      81.7821 
          60     0.030763  0.000142595  6.14597e-08      81.7821 
          60     0.038936  0.000156545  9.10465e-08      81.7821 
          60     0.048069   0.00016473  1.28625e-07      81.7821 
          60     0.058163  0.000156143  1.74563e-07      81.7821 
          60     0.069219  0.000156839  2.29085e-07      81.7821 
          60     0.081236  0.000169773   2.9209e-07      81.7821 
          60     0.094215  0.000167186  3.63365e-07      81.7821 
          60     0.108155  0.000171461  4.42906e-07      81.7821 
          60     0.123056  0.000173537  5.30644e-07      81.7821 
          60     0.138918  0.000175973  6.26931e-07      81.7821 
          60     0.155744  0.000179169  7.32598e-07      81.7821 
          60     0.173529  0.000182223  8.48927e-07      81.7821 
          60     0.192276  0.000184346  9.77733e-07      81.7821 
          60     0.211984  0.000186026  1.12129e-06      81.7821 
          60     0.232655  0.000188417  1.28248e-06      81.7821 
          60     0.254285  0.000189445  1.46508e-06      81.7821 
          60     0.276877  0.000190737  1.67162e-06      81.7821 
          60     0.300431  0.000191452    1.906e-06      81.7821 
          60     0.324946  0.000191693  2.17272e-06      81.7821 
          60     0.350424  0.000191534  2.47551e-06      81.7821 
          60     0.376861  0.000191028  2.81739e-06      81.7821 
          60      0.40426  0.000190208  3.20112e-06      81.7821 
          60     0.432621  0.000189108  3.62942e-06      81.7821 
          60     0.461945  0.000187774  4.10536e-06      81.7821 
          60     0.492228  0.000186276  4.63246e-06      81.7821 
          60     0.523472  0.000184715  5.21465e-06      81.7821 
          60     0.555678  0.000183204  5.85539e-06      81.7821 
          60     0.588845  0.000181827  6.55582e-06      81.7821 
          60     0.622976   0.00018067  7.31923e-06      81.7821 
          60     0.658066   0.00017984  8.15777e-06       81.782 
          60     0.694117  0.000179394  9.07169e-06       81.782 
          60      0.73113    0.0001795   1.0067e-05       81.782 
          60     0.769107   0.00018027  1.11484e-05       81.782 
          60     0.808042  0.000181753  1.23187e-05       81.782 
          60     0.847939  0.000183942  1.35791e-05       81.782 
          60     0.888797   0.00018677  1.49279e-05       81.782 
          60      0.93062  0.000190118  1.63615e-05       81.782 
          60       0.9734  0.000193822  1.78726e-05       81.782 
          60      1.01714  0.000197685  1.94517e-05       81.782 
          60      1.06185  0.000201488   2.1086e-05       81.782 
          60      1.10751   0.00020501  2.27605e-05       81.782 
          60      1.15414   0.00020804  2.44578e-05       81.782 
          60      1.20173  0.000210399  2.61594e-05       81.782 
          60      1.25028  0.000211953  2.78469e-05       81.782 
          60      1.29979  0.000212629  2.95039e-05       81.782 