Variables = x, y, u, v, p

Zone, I=416, F=POINT
         -50            0            0            0      13.6009 
         -50     0.013333  5.19974e-05  1.22689e-08      13.6009 
         -50     0.053333  4.92523e-05  5.45109e-08      13.6009 
         -50         0.12  4.94135e-05   1.5875e-07      13.6009 
         -50     0.213332  4.98105e-05  3.63992e-07      13.6009 
         -50     0.333332  5.00443e-05  6.27946e-07      13.6009 
         -50         0.48   5.0251e-05  9.61635e-07      13.6009 
         -50     0.653331  5.05952e-05  1.46965e-06      13.6008 
         -50     0.853332  5.07577e-05  1.91188e-06      13.6007 
         -50         1.08  5.03188e-05   2.3431e-06      13.6006 
         -50      1.33333  4.93007e-05  2.70333e-06      13.6005 
         -50      1.61333  4.80443e-05  3.03214e-06      13.6003 
         -50         1.92   4.6751e-05  3.21809e-06      13.6001 
         -50      2.25333  4.63604e-05  3.32546e-06      13.5998 
         -50      2.61333   4.6181e-05  3.13579e-06      13.5994 
         -50            3  4.54024e-05  2.62197e-06      13.5989 
         -25            0           -0           -0      13.0578 
         -25     0.013333  3.74585e-05  4.85748e-09      13.0578 
         -25     0.053333   3.3951e-05  2.11701e-08      13.0578 
         -25         0.12  3.24881e-05  5.38224e-08      13.0578 
         -25     0.213332  3.17136e-05  9.98127e-08      13.0578 
         -25     0.333332  3.12822e-05   1.5655e-07      13.0578 
         -25         0.48  3.10064e-05   2.2509e-07      13.0578 
         -25     0.653331  3.10473e-05   2.9362e-07      13.0577 
         -25     0.853332  3.15151e-05  4.14397e-07      13.0577 
         -25         1.08  3.22699e-05  5.47646e-07      13.0577 
         -25      1.33333  3.31079e-05  6.96204e-07      13.0576 
         -25      1.61333  3.40967e-05  8.32936e-07      13.0576 
         -25         1.92  3.51849e-05  9.62769e-07      13.0575 
         -25      2.25333  3.62044e-05  1.01083e-06      13.0574 
         -25      2.61333  3.64298e-05  8.86892e-07      13.0572 
         -25            3  3.56778e-05  6.83498e-07       13.057 
           0            0            0            0      12.6082 
           0     0.013333   0.00010997 -6.57969e-05      12.6087 
           0     0.053333   6.5406e-05 -3.47697e-05      12.6096 
           0         0.12  4.99041e-05 -2.31765e-05      12.6106 
           0     0.213332  4.23726e-05 -1.80033e-05      12.6116 
           0     0.333332  3.81404e-05 -1.47215e-05      12.6127 
           0         0.48   3.5187e-05  -1.2185e-05      12.6138 
           0     0.653331  3.33479e-05  -1.0191e-05      12.6149 
           0     0.853332  3.21413e-05 -8.57289e-06       12.616 
           0         1.08  3.12043e-05 -7.24075e-06       12.617 
           0      1.33333  3.04793e-05 -6.13505e-06       12.618 
           0      1.61333  2.99197e-05 -5.21808e-06       12.619 
           0         1.92  2.95555e-05  -4.4608e-06      12.6199 
           0      2.25333  2.92695e-05 -3.86517e-06      12.6208 
           0      2.61333  2.88169e-05  -3.4109e-06      12.6216 
           0            3   2.8032e-05 -3.20499e-06      12.6224 
          20            0            0            0       12.364 
          20     0.013333  0.000166598  0.000110374      12.3635 
          20     0.053333  0.000141027  9.59811e-05      12.3627 
          20         0.12  0.000101912  7.27122e-05      12.3618 
          20     0.213332   6.6972e-05  5.65869e-05      12.3608 
          20     0.333332  3.84267e-05  4.62957e-05      12.3598 
          20         0.48  1.57994e-05  3.94939e-05      12.3587 
          20     0.653331  2.62476e-06  3.52689e-05      12.3577 
          20     0.853332 -2.15288e-07  3.28393e-05      12.3567 
          20         1.08  3.14217e-06  3.13594e-05      12.3557 
          20      1.33333  8.39467e-06  3.01347e-05      12.3547 
          20      1.61333  1.44816e-05  2.87306e-05      12.3537 
          20         1.92  2.07432e-05  2.68862e-05      12.3527 
          20      2.25333  2.57322e-05  2.45536e-05      12.3518 
          20      2.61333  2.89205e-05  2.19154e-05      12.3509 
          20            3  3.06538e-05  1.92529e-05        12.35 
          40            0  6.61108e-20  9.75146e-25      12.0621 
          40     0.013333  3.11502e-05  9.78881e-09      12.0621 
          40     0.053333  3.57039e-05  1.38375e-07      12.0621 
          40         0.12  3.70127e-05  6.42689e-07      12.0621 
          40     0.213332  3.04863e-05  1.78471e-06      12.0621 
          40     0.333332  1.99252e-05  3.65455e-06      12.0621 
          40         0.48  1.16626e-05  6.16379e-06      12.0621 
          40     0.653331  8.65651e-06  9.17205e-06      12.0621 
          40     0.853332  9.66706e-06   1.2532e-05      12.0621 
          40         1.08   1.2904e-05  1.60204e-05       12.062 
          40      1.33333  1.62546e-05  1.92265e-05       12.062 
          40      1.61333  1.86816e-05  2.16962e-05       12.062 
          40         1.92  2.18979e-05   2.3052e-05       12.062 
          40      2.25333  2.39747e-05  2.32488e-05       12.062 
          40      2.61333  2.53542e-05  2.24681e-05      12.0619 
          40            3  2.68259e-05  2.09987e-05      12.0619 
          60            0  3.21217e-20  2.46609e-25      11.7933 
          60     0.013333  3.13403e-05   4.1719e-09      11.7933 
          60     0.053333  4.09395e-05   6.6381e-08      11.7933 
          60         0.12  5.12481e-05  3.52914e-07      11.7933 
          60     0.213332  5.59296e-05   1.0808e-06      11.7933 
          60     0.333332  5.59795e-05  2.35281e-06      11.7933 
          60         0.48  5.60947e-05  4.12303e-06      11.7933 
          60     0.653331  5.92667e-05   6.2646e-06      11.7933 
          60     0.853332  6.28471e-05  8.47823e-06      11.7933 
          60         1.08   6.0632e-05  1.03301e-05      11.7933 
          60      1.33333  5.26045e-05  1.16257e-05      11.7933 
          60      1.61333  4.26145e-05  1.24579e-05      11.7933 
          60         1.92  3.19406e-05  1.27258e-05      11.7933 
          60      2.25333  2.29503e-05  1.23574e-05      11.7932 
          60      2.61333  1.64229e-05  1.15383e-05      11.7932 
          60            3  1.23192e-05  1.05952e-05      11.7932 
          80            0            0            0      11.5336 
          80     0.013333  2.35273e-05  7.56218e-09      11.5336 
          80     0.053333  1.46387e-05  1.01876e-07      11.5336 
          80         0.12  3.56483e-06  4.00784e-07      11.5336 
          80     0.213332 -5.89462e-06  8.75436e-07      11.5336 
          80     0.333332 -9.37246e-06  1.32212e-06      11.5336 
          80         0.48 -7.16579e-06  1.57538e-06      11.5336 
          80     0.653331  -1.8735e-06  1.65943e-06      11.5335 
          80     0.853332  4.63918e-06  1.65818e-06      11.5335 
          80         1.08  9.83323e-06  1.48651e-06      11.5335 
          80      1.33333  1.31452e-05  1.07596e-06      11.5335 
          80      1.61333  1.71135e-05  5.42401e-07      11.5335 
          80         1.92  2.16895e-05 -1.89035e-08      11.5335 
          80      2.25333  2.53675e-05  -5.7148e-07      11.5335 
          80      2.61333  2.77199e-05 -1.07737e-06      11.5335 
          80            3  2.89621e-05  -1.4501e-06      11.5335 
         100            0            0            0      11.2792 
         100     0.013333  2.28669e-05  1.43364e-08      11.2792 
         100     0.053333  1.17018e-05  2.00484e-07      11.2792 
         100         0.12 -6.04466e-06  8.21108e-07      11.2792 
         100     0.213332 -2.59061e-05  1.93683e-06      11.2792 
         100     0.333332 -4.03206e-05  3.32977e-06      11.2792 
         100         0.48 -4.65829e-05  4.77727e-06      11.2792 
         100     0.653331 -4.51789e-05  6.29406e-06      11.2792 
         100     0.853332 -3.61254e-05  8.02953e-06      11.2792 
         100         1.08 -2.28737e-05  9.86895e-06      11.2792 
         100      1.33333 -1.09398e-05  1.14847e-05      11.2792 
         100      1.61333  6.12739e-07  1.26824e-05      11.2792 
         100         1.92  1.38374e-05  1.33767e-05      11.2792 
         100      2.25333  2.47063e-05  1.34864e-05      11.2792 
         100      2.61333  3.21734e-05   1.3027e-05      11.2792 
         100            3  3.67921e-05  1.21507e-05      11.2792 
         150            0  2.80633e-20  3.25605e-26       10.656 
         150     0.013333  2.36775e-05  3.19264e-09       10.656 
         150     0.053333  1.85497e-05  4.22937e-08       10.656 
         150         0.12  1.34606e-05  1.58946e-07       10.656 
         150     0.213332  9.40538e-06  3.30154e-07       10.656 
         150     0.333332  7.57156e-06  4.81425e-07       10.656 
         150         0.48  7.47408e-06  5.82997e-07       10.656 
         150     0.653331  8.51372e-06  6.91119e-07       10.656 
         150     0.853332  1.08494e-05   8.7931e-07       10.656 
         150         1.08  1.38797e-05   1.1271e-06       10.656 
         150      1.33333  1.64515e-05  1.36145e-06       10.656 
         150      1.61333  1.86857e-05  1.54538e-06       10.656 
         150         1.92  2.09982e-05  1.67533e-06       10.656 
         150      2.25333  2.29747e-05  1.74037e-06       10.656 
         150      2.61333  2.46241e-05  1.75161e-06       10.656 
         150            3  2.60558e-05    1.732e-06       10.656 
         200            0            0            0      10.0407 
         200     0.013333  2.19598e-05 -1.43367e-08      10.0407 
         200     0.053333  1.73833e-05 -2.16616e-07      10.0407 
         200         0.12  2.31888e-05 -9.80107e-07      10.0407 
         200     0.213332  3.98262e-05 -2.60583e-06      10.0407 
         200     0.333332   5.9002e-05 -5.07653e-06      10.0407 
         200         0.48  7.21017e-05 -8.13589e-06      10.0407 
         200     0.653331  7.61904e-05 -1.15688e-05      10.0407 
         200     0.853332  7.19451e-05 -1.52881e-05      10.0407 
         200         1.08  6.27296e-05 -1.91132e-05      10.0407 
         200      1.33333  5.36797e-05 -2.26694e-05      10.0407 
         200      1.61333  4.56182e-05  -2.5609e-05      10.0407 
         200         1.92  3.62121e-05 -2.76662e-05      10.0407 
         200      2.25333  2.76098e-05  -2.8654e-05      10.0407 
         200      2.61333  2.05168e-05 -2.85267e-05      10.0407 
         200            3  1.49003e-05 -2.73916e-05      10.0407 
         250            0            0            0      9.42797 
         250     0.013333  1.95809e-05 -1.14193e-08      9.42797 
         250     0.053333  8.10953e-06 -1.76506e-07      9.42797 
         250         0.12    3.424e-06 -8.21316e-07      9.42797 
         250     0.213332  8.45814e-06  -2.2397e-06      9.42797 
         250     0.333332  1.74618e-05  -4.4545e-06      9.42797 
         250         0.48   2.2866e-05 -7.26869e-06      9.42797 
         250     0.653331   2.1645e-05 -1.05053e-05      9.42797 
         250     0.853332  1.52788e-05 -1.40256e-05      9.42797 
         250         1.08   9.2505e-06 -1.75254e-05      9.42797 
         250      1.33333  8.34243e-06 -2.06097e-05      9.42797 
         250      1.61333  1.06462e-05 -2.30776e-05      9.42797 
         250         1.92  1.29719e-05 -2.47834e-05      9.42797 
         250      2.25333  1.54695e-05 -2.55671e-05      9.42797 
         250      2.61333  1.79334e-05 -2.53943e-05      9.42797 
         250            3  1.99004e-05 -2.43324e-05      9.42797 
         300            0            0            0      8.81619 
         300     0.013333  2.96435e-05  -1.6093e-08      8.81619 
         300     0.053333  4.49564e-05 -2.26252e-07      8.81619 
         300         0.12   7.3178e-05 -9.19121e-07      8.81619 
         300     0.213332  0.000103967 -2.13608e-06      8.81619 
         300     0.333332  0.000125282 -3.57679e-06      8.81619 
         300         0.48  0.000133524 -4.91006e-06      8.81619 
         300     0.653331  0.000132563  -6.0885e-06      8.81619 
         300     0.853332  0.000124711 -7.35106e-06      8.81619 
         300         1.08  0.000109523 -8.91743e-06      8.81619 
         300      1.33333  9.08948e-05 -1.06431e-05      8.81619 
         300      1.61333  7.34725e-05 -1.21463e-05      8.81619 
         300         1.92  5.52349e-05 -1.32637e-05      8.81619 
         300      2.25333  3.73115e-05 -1.39398e-05      8.81619 
         300      2.61333  2.10037e-05 -1.41092e-05      8.81619 
         300            3  7.46235e-06 -1.37743e-05      8.81618 
         350            0           -0           -0      8.20459 
         350     0.013333  2.02866e-05 -4.71045e-09      8.20459 
         350     0.053333  9.01039e-06 -7.49473e-08      8.20459 
         350         0.12  9.02338e-07 -3.65952e-07      8.20459 
         350     0.213332 -1.44606e-07 -1.06343e-06      8.20459 
         350     0.333332  4.87126e-06  -2.2702e-06      8.20459 
         350         0.48  1.14682e-05  -3.9581e-06      8.20459 
         350     0.653331  1.59205e-05 -6.03239e-06      8.20459 
         350     0.853332  1.68687e-05 -8.40222e-06      8.20459 
         350         1.08  1.53589e-05 -1.09515e-05      8.20459 
         350      1.33333   1.4289e-05 -1.34743e-05      8.20459 
         350      1.61333  1.53139e-05 -1.57375e-05      8.20459 
         350         1.92  1.70549e-05 -1.75813e-05      8.20459 
         350      2.25333  1.90954e-05 -1.88603e-05      8.20459 
         350      2.61333  2.12549e-05 -1.94879e-05      8.20459 
         350            3  2.32034e-05 -1.94341e-05      8.20459 
         400            0            0            0      7.59303 
         400     0.013333  2.81004e-05  1.17449e-08      7.59303 
         400     0.053333  3.20726e-05  1.80755e-07      7.59303 
         400         0.12  2.98475e-05  8.42551e-07      7.59303 
         400     0.213332  1.63514e-05  2.32056e-06      7.59303 
         400     0.333332 -2.55533e-06  4.68007e-06      7.59303 
         400         0.48 -1.75411e-05  7.71623e-06      7.59303 
         400     0.653331 -2.37772e-05  1.11816e-05      7.59303 
         400     0.853332 -2.17113e-05  1.49268e-05      7.59303 
         400         1.08 -1.48518e-05   1.8795e-05      7.59303 
         400      1.33333 -7.81472e-06  2.25294e-05      7.59303 
         400      1.61333 -2.24785e-06  2.58784e-05      7.59303 
         400         1.92  3.73355e-06  2.86421e-05      7.59303 
         400      2.25333   1.0068e-05  3.06095e-05      7.59303 
         400      2.61333  1.64147e-05  3.16193e-05      7.59303 
         400            3  2.23817e-05   3.1592e-05      7.59303 
         450            0            0            0      6.98144 
         450     0.013333  2.85214e-05 -2.05457e-09      6.98144 
         450     0.053333  3.74838e-05  -2.3079e-08      6.98144 
         450         0.12  5.05394e-05 -5.59045e-08      6.98144 
         450     0.213332  6.11392e-05 -1.03758e-08      6.98144 
         450     0.333332  6.60749e-05  2.35768e-07      6.98144 
         450         0.48  6.66462e-05  7.38612e-07      6.98144 
         450     0.653331  6.61225e-05  1.46707e-06      6.98144 
         450     0.853332  6.60039e-05  2.31854e-06      6.98144 
         450         1.08  6.42542e-05  3.09684e-06      6.98144 
         450      1.33333   5.8197e-05  3.60628e-06      6.98144 
         450      1.61333  4.97063e-05  3.86349e-06      6.98144 
         450         1.92  4.15355e-05  3.99273e-06      6.98144 
         450      2.25333    3.352e-05  4.00969e-06      6.98144 
         450      2.61333  2.57064e-05  3.89689e-06      6.98144 
         450            3  1.87917e-05  3.65396e-06      6.98144 
         500            0           -0           -0      6.36971 
         500     0.013333  2.27108e-05  1.15116e-08      6.36971 
         500     0.053333  1.27096e-05  1.71413e-07      6.36971 
         500         0.12 -6.18866e-06  7.61113e-07      6.36971 
         500     0.213332 -3.22834e-05  1.97524e-06      6.36971 
         500     0.333332 -5.60713e-05  3.72297e-06      6.36971 
         500         0.48 -6.94306e-05  5.70524e-06      6.36971 
         500     0.653331 -7.14353e-05   7.6856e-06      6.36971 
         500     0.853332 -6.54956e-05  9.61516e-06      6.36971 
         500         1.08 -5.52716e-05  1.14987e-05      6.36971 
         500      1.33333  -4.4286e-05  1.32316e-05      6.36971 
         500      1.61333 -3.37482e-05  1.46945e-05      6.36971 
         500         1.92 -2.17699e-05  1.58341e-05      6.36971 
         500      2.25333 -8.63048e-06  1.65967e-05      6.36971 
         500      2.61333  4.80937e-06   1.6903e-05      6.36971 
         500            3  1.76444e-05  1.66998e-05      6.36971 
         550            0           -0           -0      5.75797 
         550     0.013333   2.7913e-05 -1.47713e-08      5.75797 
         550     0.053333  3.92769e-05 -2.14474e-07      5.75797 
         550         0.12  6.51227e-05 -9.21368e-07      5.75797 
         550     0.213332  9.94371e-05 -2.31663e-06      5.75797 
         550     0.333332  0.000130337 -4.26705e-06      5.75797 
         550         0.48  0.000149471 -6.46463e-06      5.75797 
         550     0.653331  0.000156781 -8.70264e-06      5.75797 
         550     0.853332  0.000155335 -1.10053e-05      5.75797 
         550         1.08  0.000145814 -1.35447e-05      5.75797 
         550      1.33333  0.000128877 -1.63844e-05      5.75797 
         550      1.61333  0.000109155 -1.92851e-05      5.75797 
         550         1.92   8.9561e-05 -2.19103e-05      5.75796 
         550      2.25333  6.93067e-05   -2.405e-05      5.75796 
         550      2.61333  4.84232e-05 -2.55706e-05      5.75796 
         550            3  2.82406e-05 -2.63636e-05      5.75796 
         600            0  2.88562e-20 -4.06111e-28      5.14602 
         600     0.013333  2.62142e-05  1.05012e-08      5.14602 
         600     0.053333  2.58255e-05  1.57749e-07      5.14602 
         600         0.12  1.98465e-05  7.12759e-07      5.14602 
         600     0.213332  5.59727e-06  1.90396e-06      5.14602 
         600     0.333332 -1.13534e-05  3.74195e-06      5.14602 
         600         0.48 -2.37962e-05  6.04813e-06      5.14602 
         600     0.653331 -2.86557e-05  8.64816e-06      5.14602 
         600     0.853332 -2.65315e-05  1.14893e-05      5.14602 
         600         1.08 -1.92113e-05  1.45612e-05      5.14602 
         600      1.33333  -9.9511e-06  1.77402e-05      5.14602 
         600      1.61333 -2.18585e-06  2.07889e-05      5.14602 
         600         1.92  4.15111e-06  2.34895e-05      5.14602 
         600      2.25333  1.03092e-05  2.57015e-05      5.14602 
         600      2.61333  1.65148e-05  2.72633e-05      5.14602 
         600            3  2.22912e-05  2.80441e-05      5.14602 
         650            0           -0           -0      4.53403 
         650     0.013333  2.73333e-05 -5.50425e-09      4.53403 
         650     0.053333   3.4187e-05 -7.53631e-08      4.53403 
         650         0.12  4.69564e-05 -2.91934e-07      4.53403 
         650     0.213332  5.98357e-05 -6.28621e-07      4.53403 
         650     0.333332  6.76952e-05 -9.38216e-07      4.53403 
         650         0.48  6.99879e-05 -1.10106e-06      4.53403 
         650     0.653331  6.96859e-05 -1.15247e-06      4.53403 
         650     0.853332  6.81589e-05 -1.26828e-06      4.53403 
         650         1.08  6.34833e-05 -1.65529e-06      4.53403 
         650      1.33333  5.49887e-05 -2.36089e-06      4.53403 
         650      1.61333  4.64325e-05 -3.18751e-06      4.53403 
         650         1.92  3.99358e-05 -3.93153e-06      4.53403 
         650      2.25333  3.39552e-05 -4.56444e-06      4.53403 
         650      2.61333  2.78635e-05 -5.06428e-06      4.53403 
         650            3  2.20607e-05 -5.40069e-06      4.53403 
         700            0            0            0      3.92188 
         700     0.013333  1.50195e-05  -1.5537e-08      3.92188 
         700     0.053333 -5.79004e-06  -2.4935e-07      3.92188 
         700         0.12 -1.38034e-05 -1.23168e-06      3.92188 
         700     0.213332  3.76154e-06 -3.61154e-06      3.92188 
         700     0.333332   4.0016e-05 -7.71274e-06      3.92188 
         700         0.48  7.47252e-05 -1.32873e-05      3.92188 
         700     0.653331  9.27794e-05 -1.97738e-05      3.92188 
         700     0.853332   9.2572e-05 -2.66809e-05      3.92188 
         700         1.08  8.24178e-05 -3.36122e-05      3.92188 
         700      1.33333  7.33603e-05 -4.01339e-05      3.92188 
         700      1.61333  6.93192e-05 -4.59501e-05      3.92188 
         700         1.92  6.46655e-05 -5.10029e-05      3.92188 
         700      2.25333  5.77248e-05 -5.51299e-05      3.92188 
         700      2.61333  4.92909e-05 -5.80429e-05      3.92188 
         700            3  4.03506e-05 -5.94704e-05      3.92188 
         750            0            0            0      3.30957 
         750     0.013333  4.92914e-05  2.70933e-08      3.30957 
         750     0.053333  0.000102848  4.37009e-07      3.30957 
         750         0.12  0.000145306  2.17486e-06      3.30957 
         750     0.213332  0.000142378  6.44256e-06      3.30957 
         750     0.333332  9.75963e-05  1.39456e-05      3.30957 
         750         0.48  4.32912e-05   2.4436e-05      3.30957 
         750     0.653331  9.10409e-06  3.70933e-05      3.30957 
         750     0.853332  4.28412e-06  5.11601e-05      3.30957 
         750         1.08  2.00702e-05  6.59921e-05      3.30957 
         750      1.33333   3.6532e-05  8.06844e-05      3.30957 
         750      1.61333  3.87659e-05  9.42558e-05      3.30957 
         750         1.92  3.33844e-05  0.000106226      3.30957 
         750      2.25333  2.82247e-05  0.000116266      3.30957 
         750      2.61333  2.44561e-05  0.000123815      3.30957 
         750            3  2.08293e-05  0.000128265      3.30957 
         800            0           -0           -0      2.69701 
         800     0.013333 -1.09713e-05 -1.39469e-08      2.69701 
         800     0.053333  -0.00010004 -2.50952e-07      2.69701 
         800         0.12 -0.000191372 -1.41294e-06      2.69701 
         800     0.213332 -0.000238546 -4.67125e-06      2.69701 
         800     0.333332 -0.000228427 -1.10538e-05      2.69701 
         800         0.48 -0.000186237 -2.07552e-05      2.69701 
         800     0.653331 -0.000147345 -3.31641e-05      2.69701 
         800     0.853332 -0.000130586 -4.74069e-05      2.69701 
         800         1.08 -0.000131931 -6.25883e-05      2.69701 
         800      1.33333 -0.000131454 -7.76043e-05      2.69701 
         800      1.61333 -0.000113577 -9.14091e-05      2.69701 
         800         1.92 -8.57965e-05  -0.00010363      2.69701 
         800      2.25333 -5.69658e-05 -0.000113988      2.69701 
         800      2.61333 -2.89974e-05 -0.000122026      2.69701 
         800            3 -1.24766e-06 -0.000127158      2.69701 
         850            0           -0           -0       2.0845 
         850     0.013333  5.14806e-05 -2.36032e-08       2.0845 
         850     0.053333  0.000127505  -3.2417e-07       2.0845 
         850         0.12  0.000239744 -1.26281e-06       2.0845 
         850     0.213332  0.000352939 -2.72655e-06       2.0845 
         850     0.333332  0.000431417 -3.98272e-06       2.0845 
         850         0.48  0.000463136  -4.2035e-06       2.0845 
         850     0.653331  0.000462186 -3.06517e-06       2.0845 
         850     0.853332  0.000448216 -8.69442e-07       2.0845 
         850         1.08  0.000427663  1.67479e-06       2.0845 
         850      1.33333  0.000393782  3.79473e-06       2.0845 
         850      1.61333  0.000343492  5.12021e-06       2.0845 
         850         1.92   0.00028688  5.93988e-06      2.08449 
         850      2.25333  0.000228536  6.56361e-06      2.08449 
         850      2.61333  0.000168477  7.04586e-06      2.08449 
         850            3  0.000106729  7.32114e-06      2.08449 
         900            0  3.51924e-20 -1.40134e-27       1.4715 
         900     0.013333  4.36144e-05  1.83169e-08       1.4715 
         900     0.053333  8.60869e-05  2.90384e-07       1.4715 
         900         0.12  0.000125373  1.42006e-06       1.4715 
         900     0.213332  0.000135589  4.16619e-06       1.4715 
         900     0.333332  0.000114183  9.02972e-06       1.4715 
         900         0.48  7.85168e-05  1.59934e-05       1.4715 
         900     0.653331  4.84221e-05  2.46789e-05       1.4715 
         900     0.853332  3.41115e-05  3.46941e-05       1.4715 
         900         1.08   3.6003e-05  4.57442e-05       1.4715 
         900      1.33333  4.67838e-05  5.74358e-05       1.4715 
         900      1.61333   5.4924e-05  6.90998e-05       1.4715 
         900         1.92  5.42676e-05   8.0056e-05       1.4715 
         900      2.25333   4.9524e-05  8.98026e-05       1.4715 
         900      2.61333   4.3913e-05  9.78866e-05       1.4715 
         900            3  3.78064e-05  0.000103845       1.4715 
         950            0           -0           -0     0.858415 
         950     0.013333  2.29866e-05  8.36179e-09     0.858415 
         950     0.053333  1.47299e-05  1.20478e-07     0.858415 
         950         0.12  5.07951e-07  5.15565e-07     0.858415 
         950     0.213332 -1.93627e-05  1.30436e-06     0.858415 
         950     0.333332 -4.01726e-05  2.45601e-06     0.858415 
         950         0.48 -5.76877e-05  3.86767e-06     0.858415 
         950     0.653331  -7.0583e-05  5.47027e-06     0.858415 
         950     0.853332 -7.90517e-05  7.28272e-06     0.858415 
         950         1.08 -8.17608e-05  9.42624e-06     0.858415 
         950      1.33333 -7.57324e-05  1.20663e-05     0.858415 
         950      1.61333 -6.14628e-05  1.52088e-05     0.858415 
         950         1.92 -4.54542e-05  1.85539e-05     0.858416 
         950      2.25333 -3.04419e-05  2.17759e-05     0.858416 
         950      2.61333 -1.59562e-05  2.46657e-05     0.858416 
         950            3 -1.00917e-06  2.70835e-05     0.858417 
        1000            0           -0           -0     0.245294 
        1000     0.013333  3.93907e-05  5.18761e-09     0.245294 
        1000     0.053333  7.47732e-05  9.37745e-08     0.245294 
        1000         0.12  0.000114259  5.32728e-07     0.245294 
        1000     0.213332  0.000134494  1.79739e-06     0.245294 
        1000     0.333332  0.000125201  4.36862e-06     0.245295 
        1000         0.48  9.56582e-05  8.41343e-06     0.245295 
        1000     0.653331  6.49478e-05  1.36741e-05     0.245295 
        1000     0.853332  4.56027e-05  1.96632e-05     0.245295 
        1000         1.08  3.73811e-05  2.58998e-05     0.245295 
        1000      1.33333   3.3287e-05  3.20284e-05     0.245295 
        1000      1.61333  2.90649e-05  3.78784e-05     0.245295 
        1000         1.92   2.6544e-05  4.34099e-05     0.245294 
        1000      2.25333   2.5485e-05  4.84734e-05     0.245294 
        1000      2.61333  2.49442e-05  5.27851e-05     0.245294 
        1000            3  2.45317e-05  5.60477e-05     0.245293 
