Variables = x, y, u, v, p

Zone, I=416, F=POINT
         -50            0            0            0     -89.8345 
         -50     0.013333 -0.000156024 -5.11876e-08     -89.8345 
         -50     0.053333 -0.000129925 -1.47898e-07     -89.8345 
         -50         0.12 -0.000118991 -2.51898e-07     -89.8345 
         -50     0.213332 -0.000118487   -1.596e-07     -89.8344 
         -50     0.333332 -0.000124336  1.16806e-07     -89.8343 
         -50         0.48 -0.000131044  7.58443e-07     -89.8342 
         -50     0.653331 -0.000134999  2.08168e-06     -89.8339 
         -50     0.853332 -0.000136515  3.27543e-06     -89.8334 
         -50         1.08 -0.000138976  4.22789e-06     -89.8328 
         -50      1.33333 -0.000140685  5.18889e-06     -89.8319 
         -50      1.61333 -0.000137426  5.77448e-06     -89.8307 
         -50         1.92 -0.000132636  5.79358e-06     -89.8291 
         -50      2.25333 -0.000130631  3.38377e-06      -89.827 
         -50      2.61333  -0.00013565 -3.19386e-06     -89.8245 
         -50            3 -0.000142403 -1.03427e-05     -89.8213 
         -25            0 -1.41576e-19 -1.04774e-23     -86.2349 
         -25     0.013333 -0.000112548  -1.6985e-08     -86.2348 
         -25     0.053333 -8.99054e-05 -9.59231e-09     -86.2348 
         -25         0.12 -7.80269e-05  1.14132e-07     -86.2348 
         -25     0.213332 -7.41094e-05  5.00269e-07     -86.2348 
         -25     0.333332 -7.53024e-05  1.28468e-06     -86.2348 
         -25         0.48 -7.77201e-05  2.51865e-06     -86.2347 
         -25     0.653331 -7.87755e-05  4.11472e-06     -86.2346 
         -25     0.853332 -7.91625e-05  6.04202e-06     -86.2344 
         -25         1.08 -8.27903e-05  7.90422e-06     -86.2342 
         -25      1.33333 -9.03892e-05  9.41089e-06     -86.2339 
         -25      1.61333 -9.91746e-05  1.03383e-05     -86.2334 
         -25         1.92 -0.000108333  1.09861e-05     -86.2328 
         -25      2.25333 -0.000114667  1.08828e-05      -86.232 
         -25      2.61333 -0.000118831  9.95059e-06      -86.231 
         -25            3   -0.0001221  8.20094e-06     -86.2298 
           0            0 -3.17432e-19  4.15478e-19     -83.2778 
           0     0.013333 -0.000281309  0.000189808     -83.2809 
           0     0.053333 -0.000169353  9.60039e-05     -83.2864 
           0         0.12 -0.000114251  6.54411e-05     -83.2926 
           0     0.213332 -7.59136e-05  4.92369e-05     -83.2991 
           0     0.333332 -4.89795e-05  3.78903e-05     -83.3058 
           0         0.48  -3.1917e-05  2.82085e-05     -83.3125 
           0     0.653331 -2.50893e-05  1.97614e-05     -83.3192 
           0     0.853332 -2.64478e-05  1.22139e-05     -83.3257 
           0         1.08 -3.32712e-05  5.46478e-06     -83.3321 
           0      1.33333 -4.34808e-05  -4.1834e-07     -83.3381 
           0      1.61333 -5.72229e-05 -5.25843e-06     -83.3439 
           0         1.92 -7.27642e-05 -8.82114e-06     -83.3494 
           0      2.25333 -8.83088e-05 -1.14636e-05     -83.3546 
           0      2.61333 -0.000102297 -1.25973e-05     -83.3594 
           0            3 -0.000103877 -9.85099e-06     -83.3638 
          20            0           -0           -0      -81.497 
          20     0.013333 -0.000123314 -5.88822e-08      -81.497 
          20     0.053333 -0.000176789 -6.21817e-07      -81.497 
          20         0.12 -0.000226703   -2.978e-06      -81.497 
          20     0.213332 -0.000245291 -8.66362e-06      -81.497 
          20     0.333332 -0.000243024 -1.81152e-05     -81.4969 
          20         0.48 -0.000225797 -2.98727e-05     -81.4969 
          20     0.653331 -0.000199051 -4.25709e-05     -81.4967 
          20     0.853332 -0.000187518 -5.69617e-05     -81.4965 
          20         1.08 -0.000177649 -7.14152e-05     -81.4962 
          20      1.33333 -0.000153795 -8.31544e-05     -81.4957 
          20      1.61333 -0.000120659 -9.06884e-05     -81.4951 
          20         1.92  -8.7519e-05 -9.32666e-05     -81.4944 
          20      2.25333  -6.6253e-05 -9.12032e-05     -81.4934 
          20      2.61333 -5.80193e-05 -8.53846e-05     -81.4923 
          20            3 -5.63341e-05 -7.71289e-05     -81.4909 
          40            0           -0           -0     -79.6117 
          40     0.013333 -7.74411e-05 -2.33235e-08     -79.6117 
          40     0.053333 -4.58307e-05 -2.58448e-07     -79.6117 
          40         0.12 -1.39919e-05 -8.85807e-07     -79.6117 
          40     0.213332  9.17025e-06 -1.62785e-06     -79.6117 
          40     0.333332  1.86897e-05 -1.96325e-06     -79.6117 
          40         0.48  2.03655e-05 -1.73064e-06     -79.6117 
          40     0.653331  1.87573e-05 -1.31506e-06     -79.6117 
          40     0.853332  1.07685e-05 -1.28111e-06     -79.6116 
          40         1.08 -5.83754e-06 -1.74925e-06     -79.6116 
          40      1.33333 -2.60802e-05 -2.25628e-06     -79.6115 
          40      1.61333 -4.48801e-05 -2.33368e-06     -79.6114 
          40         1.92 -6.23251e-05 -2.01252e-06     -79.6113 
          40      2.25333  -7.3221e-05 -1.33257e-06     -79.6111 
          40      2.61333 -7.95692e-05  -4.5548e-07     -79.6109 
          40            3 -8.56614e-05  4.19763e-07     -79.6106 
          60            0           -0           -0     -77.8364 
          60     0.013333 -7.37386e-05  1.01155e-08     -77.8364 
          60     0.053333 -5.00228e-05  2.13442e-07     -77.8364 
          60         0.12 -4.51106e-05  1.15046e-06     -77.8364 
          60     0.213332 -6.19481e-05  3.45382e-06     -77.8364 
          60     0.333332 -8.64778e-05   7.2146e-06     -77.8364 
          60         0.48 -0.000101553  1.18835e-05     -77.8364 
          60     0.653331 -0.000103102  1.67192e-05     -77.8364 
          60     0.853332 -0.000100233  2.08997e-05     -77.8364 
          60         1.08 -0.000101445   2.3821e-05     -77.8363 
          60      1.33333 -0.000101537  2.55638e-05     -77.8363 
          60      1.61333 -9.71614e-05  2.63871e-05     -77.8362 
          60         1.92  -8.9483e-05  2.60731e-05     -77.8361 
          60      2.25333 -8.01908e-05  2.46072e-05     -77.8361 
          60      2.61333 -7.42733e-05  2.18506e-05     -77.8359 
          60            3 -7.44405e-05  1.82836e-05     -77.8358 
          80            0           -0           -0     -76.1177 
          80     0.013333 -6.61576e-05  2.95415e-08     -76.1177 
          80     0.053333 -3.10402e-05  4.74555e-07     -76.1177 
          80         0.12 -1.63198e-05  2.20412e-06     -76.1177 
          80     0.213332 -2.72135e-05  5.96711e-06     -76.1176 
          80     0.333332 -4.87198e-05  1.18322e-05     -76.1176 
          80         0.48 -6.20422e-05  1.94605e-05     -76.1176 
          80     0.653331 -5.69518e-05  2.85863e-05     -76.1176 
          80     0.853332 -3.86244e-05  3.85546e-05     -76.1176 
          80         1.08 -2.95801e-05  4.78054e-05     -76.1176 
          80      1.33333 -3.60225e-05  5.51748e-05     -76.1176 
          80      1.61333 -4.49565e-05  6.05577e-05     -76.1175 
          80         1.92 -5.34135e-05  6.32599e-05     -76.1175 
          80      2.25333 -6.34892e-05  6.30492e-05     -76.1174 
          80      2.61333 -7.20689e-05  6.04263e-05     -76.1174 
          80            3 -7.66263e-05  5.60777e-05     -76.1173 
         100            0 -9.84519e-20 -5.14557e-25      -74.434 
         100     0.013333 -8.55375e-05   1.6494e-08      -74.434 
         100     0.053333  -9.8242e-05  2.25942e-07      -74.434 
         100         0.12 -0.000124452  7.99357e-07      -74.434 
         100     0.213332 -0.000142977  1.43722e-06      -74.434 
         100     0.333332 -0.000142034   1.5056e-06      -74.434 
         100         0.48 -0.000127529  7.09026e-07      -74.434 
         100     0.653331 -0.000109851 -6.36163e-07      -74.434 
         100     0.853332 -9.22287e-05 -2.03796e-06      -74.434 
         100         1.08 -7.82031e-05 -3.53923e-06      -74.434 
         100      1.33333 -6.91407e-05  -5.3671e-06      -74.434 
         100      1.61333  -5.9357e-05 -7.30315e-06     -74.4339 
         100         1.92 -5.10853e-05 -9.14314e-06     -74.4339 
         100      2.25333 -4.70232e-05 -1.06706e-05     -74.4339 
         100      2.61333 -4.66941e-05 -1.18115e-05     -74.4338 
         100            3 -4.88817e-05 -1.26104e-05     -74.4338 
         150            0           -0           -0     -70.3062 
         150     0.013333 -7.22175e-05  1.87436e-08     -70.3062 
         150     0.053333 -5.85068e-05  3.01278e-07     -70.3062 
         150         0.12 -6.57227e-05  1.43922e-06     -70.3062 
         150     0.213332 -9.14653e-05  3.97092e-06     -70.3062 
         150     0.333332 -0.000118738  7.83574e-06     -70.3062 
         150         0.48 -0.000131823  1.24406e-05     -70.3062 
         150     0.653331 -0.000129095  1.71868e-05     -70.3062 
         150     0.853332 -0.000119332  2.15737e-05     -70.3062 
         150         1.08 -0.000111659  2.51263e-05     -70.3062 
         150      1.33333 -0.000104466  2.77621e-05     -70.3062 
         150      1.61333 -9.38547e-05  2.95733e-05     -70.3062 
         150         1.92 -8.12952e-05  3.03396e-05     -70.3062 
         150      2.25333 -7.00636e-05  2.98832e-05     -70.3062 
         150      2.61333 -6.06143e-05  2.84184e-05     -70.3062 
         150            3 -5.10547e-05  2.66094e-05     -70.3062 
         200            0            0            0     -66.2294 
         200     0.013333 -9.05504e-05  1.48195e-08     -66.2294 
         200     0.053333 -0.000121373  1.79098e-07     -66.2294 
         200         0.12 -0.000168904  5.36707e-07     -66.2294 
         200     0.213332 -0.000207396  6.82459e-07     -66.2294 
         200     0.333332 -0.000225545   5.6227e-08     -66.2294 
         200         0.48 -0.000230459 -1.49788e-06     -66.2294 
         200     0.653331 -0.000231729 -3.60981e-06     -66.2294 
         200     0.853332 -0.000226358 -5.49758e-06     -66.2294 
         200         1.08 -0.000204321 -6.34435e-06     -66.2294 
         200      1.33333 -0.000170361  -6.0779e-06     -66.2294 
         200      1.61333 -0.000136426  -5.3911e-06     -66.2294 
         200         1.92 -0.000100518 -4.43452e-06     -66.2294 
         200      2.25333 -6.71472e-05 -3.24617e-06     -66.2294 
         200      2.61333 -4.00276e-05 -2.01065e-06     -66.2294 
         200            3 -2.14832e-05 -8.39448e-07     -66.2294 
         250            0           -0           -0     -62.1693 
         250     0.013333 -0.000112061  -5.5174e-08     -62.1693 
         250     0.053333    -0.000177 -9.04671e-07     -62.1693 
         250         0.12 -0.000210193 -4.55726e-06     -62.1693 
         250     0.213332  -0.00016047 -1.34894e-05     -62.1693 
         250     0.333332 -5.38349e-05 -2.88059e-05     -62.1693 
         250         0.48  4.41231e-05 -4.94117e-05     -62.1693 
         250     0.653331  9.37985e-05 -7.31921e-05     -62.1693 
         250     0.853332  9.89373e-05 -9.82413e-05     -62.1693 
         250         1.08  8.41085e-05 -0.000122899     -62.1693 
         250      1.33333  6.75846e-05  -0.00014562     -62.1693 
         250      1.61333   4.9766e-05 -0.000165078     -62.1693 
         250         1.92  2.41015e-05 -0.000179634     -62.1693 
         250      2.25333 -2.40867e-06 -0.000187772     -62.1693 
         250      2.61333 -2.71012e-05 -0.000189017     -62.1693 
         250            3 -4.90356e-05 -0.000183592     -62.1693 
         300            0            0            0     -58.1146 
         300     0.013333 -0.000168584  1.82523e-08     -58.1146 
         300     0.053333 -0.000399701  1.06076e-07     -58.1146 
         300         0.12 -0.000677047 -5.81741e-07     -58.1146 
         300     0.213332 -0.000874342 -4.67106e-06     -58.1146 
         300     0.333332 -0.000942956 -1.50894e-05     -58.1146 
         300         0.48 -0.000929731 -3.28226e-05     -58.1146 
         300     0.653331  -0.00090399 -5.65792e-05     -58.1146 
         300     0.853332 -0.000884188 -8.34833e-05     -58.1146 
         300         1.08 -0.000829887 -0.000109652     -58.1146 
         300      1.33333 -0.000711955 -0.000131995     -58.1146 
         300      1.61333 -0.000560033 -0.000150121     -58.1146 
         300         1.92 -0.000397885 -0.000163675     -58.1145 
         300      2.25333 -0.000237155 -0.000171347     -58.1145 
         300      2.61333 -8.87756e-05 -0.000172799     -58.1145 
         300            3  3.48494e-05 -0.000168167     -58.1145 
         350            0           -0           -0     -54.0599 
         350     0.013333 -8.33031e-05 -3.28224e-08     -54.0599 
         350     0.053333 -8.30978e-05 -5.15911e-07     -54.0599 
         350         0.12 -6.37215e-05 -2.45232e-06     -54.0599 
         350     0.213332 -1.28276e-05 -6.80756e-06     -54.0599 
         350     0.333332  4.72897e-05 -1.36345e-05     -54.0599 
         350         0.48  8.61942e-05 -2.20657e-05     -54.0599 
         350     0.653331  9.24342e-05 -3.11975e-05     -54.0599 
         350     0.853332  7.39767e-05 -4.04674e-05     -54.0599 
         350         1.08  5.01759e-05 -4.90902e-05     -54.0599 
         350      1.33333  3.66273e-05 -5.61323e-05     -54.0599 
         350      1.61333  2.57432e-05  -6.1453e-05     -54.0599 
         350         1.92  7.12164e-06 -6.51588e-05     -54.0599 
         350      2.25333 -1.51363e-05 -6.69036e-05     -54.0599 
         350      2.61333 -3.77808e-05 -6.64904e-05     -54.0599 
         350            3 -5.88652e-05 -6.39389e-05     -54.0599 
         400            0           -0           -0     -50.0048 
         400     0.013333 -0.000105798   2.3076e-08     -50.0048 
         400     0.053333 -0.000181347  3.08603e-07     -50.0048 
         400         0.12 -0.000295518  1.14439e-06     -50.0048 
         400     0.213332 -0.000404426  2.26242e-06     -50.0048 
         400     0.333332  -0.00047201  2.75469e-06     -50.0048 
         400         0.48 -0.000491941  1.66322e-06     -50.0048 
         400     0.653331 -0.000483387 -1.43364e-06     -50.0048 
         400     0.853332 -0.000466449 -6.29743e-06     -50.0048 
         400         1.08  -0.00044294 -1.20895e-05     -50.0048 
         400      1.33333 -0.000400018 -1.76178e-05     -50.0048 
         400      1.61333 -0.000336631 -2.22652e-05     -50.0048 
         400         1.92 -0.000264674 -2.60909e-05     -50.0048 
         400      2.25333 -0.000189474 -2.90461e-05     -50.0048 
         400      2.61333 -0.000115754 -3.09184e-05     -50.0048 
         400            3 -5.03309e-05 -3.15899e-05     -50.0048 
         450            0            0            0     -45.9483 
         450     0.013333 -1.67282e-05 -1.57769e-08     -45.9483 
         450     0.053333  0.000146472 -1.35906e-07     -45.9483 
         450         0.12  0.000331961  4.09643e-08     -45.9483 
         450     0.213332  0.000464149  2.09491e-06     -45.9483 
         450     0.333332  0.000508474   7.9779e-06     -45.9483 
         450         0.48  0.000493641  1.84406e-05     -45.9483 
         450     0.653331  0.000468779  3.26016e-05     -45.9483 
         450     0.853332  0.000452079  4.85487e-05     -45.9483 
         450         1.08  0.000420838  6.39138e-05     -45.9483 
         450      1.33333  0.000353954   7.7038e-05     -45.9483 
         450      1.61333  0.000267793  8.79468e-05     -45.9483 
         450         1.92  0.000179758  9.69446e-05     -45.9483 
         450      2.25333  9.00271e-05  0.000103295     -45.9483 
         450      2.61333   1.5532e-06  0.000106517     -45.9483 
         450            3 -7.78504e-05  0.000106361     -45.9483 
         500            0           -0           -0     -41.8909 
         500     0.013333 -5.08801e-05 -5.24634e-08     -41.8909 
         500     0.053333  3.58839e-05 -7.34898e-07     -41.8909 
         500         0.12   0.00015986 -2.95876e-06     -41.8909 
         500     0.213332  0.000284435 -6.74073e-06     -41.8909 
         500     0.333332   0.00036272 -1.08513e-05     -41.8909 
         500         0.48  0.000381779 -1.39283e-05     -41.8909 
         500     0.653331  0.000363327 -1.57066e-05     -41.8909 
         500     0.853332  0.000326706 -1.71222e-05     -41.8909 
         500         1.08  0.000270673 -1.94314e-05     -41.8909 
         500      1.33333   0.00020036 -2.27416e-05     -41.8909 
         500      1.61333  0.000137739 -2.57738e-05     -41.8909 
         500         1.92  8.14686e-05 -2.76564e-05     -41.8909 
         500      2.25333  2.40829e-05 -2.85491e-05     -41.8909 
         500      2.61333 -3.33867e-05 -2.84585e-05     -41.8909 
         500            3 -8.47394e-05  -2.7291e-05     -41.8909 
         550            0            0            0     -37.8322 
         550     0.013333 -0.000101105  4.81183e-08     -37.8322 
         550     0.053333 -0.000173003  6.94193e-07     -37.8322 
         550         0.12 -0.000305505  2.94702e-06     -37.8322 
         550     0.213332 -0.000462415  7.25808e-06     -37.8322 
         550     0.333332 -0.000591677  1.29174e-05     -37.8322 
         550         0.48 -0.000662101  1.85722e-05     -37.8322 
         550     0.653331 -0.000679045  2.32745e-05     -37.8322 
         550     0.853332 -0.000663308  2.69423e-05     -37.8322 
         550         1.08 -0.000627034  3.00513e-05     -37.8322 
         550      1.33333  -0.00057006  3.31825e-05     -37.8322 
         550      1.61333 -0.000492799  3.65493e-05     -37.8322 
         550         1.92 -0.000403963  3.97224e-05     -37.8322 
         550      2.25333 -0.000308692  4.22809e-05     -37.8322 
         550      2.61333 -0.000210511  4.38822e-05     -37.8322 
         550            3 -0.000114946   4.4373e-05     -37.8322 
         600            0           -0           -0     -33.7715 
         600     0.013333 -7.35119e-05 -3.76738e-08     -33.7715 
         600     0.053333 -4.94803e-05 -5.36508e-07     -33.7715 
         600         0.12  -9.2921e-06 -2.23905e-06     -33.7715 
         600     0.213332  4.42043e-05  -5.4599e-06     -33.7715 
         600     0.333332  9.41376e-05 -9.85852e-06     -33.7715 
         600         0.48  0.000131443  -1.5008e-05     -33.7715 
         600     0.653331  0.000157469 -2.09933e-05     -33.7715 
         600     0.853332  0.000168425 -2.85034e-05     -33.7715 
         600         1.08  0.000149881 -3.83974e-05     -33.7715 
         600      1.33333  0.000102266 -5.06115e-05     -33.7715 
         600      1.61333  5.44514e-05 -6.35331e-05     -33.7715 
         600         1.92  2.00683e-05 -7.55161e-05     -33.7715 
         600      2.25333 -1.06894e-05  -8.5952e-05     -33.7715 
         600      2.61333 -4.20092e-05 -9.41953e-05     -33.7715 
         600            3 -7.13004e-05 -9.96436e-05     -33.7715 
         650            0            0            0     -29.7092 
         650     0.013333 -9.80893e-05 -9.55114e-08     -29.7092 
         650     0.053333 -0.000114311 -1.47296e-06     -29.7092 
         650         0.12 -5.78425e-05 -6.90545e-06     -29.7092 
         650     0.213332  0.000110444 -1.92027e-05     -29.7092 
         650     0.333332  0.000335326 -3.91374e-05     -29.7092 
         650         0.48  0.000521781  -6.4961e-05     -29.7092 
         650     0.653331   0.00061571 -9.41291e-05     -29.7092 
         650     0.853332  0.000619604 -0.000125056     -29.7092 
         650         1.08  0.000561908 -0.000156969     -29.7092 
         650      1.33333  0.000482131 -0.000188482     -29.7092 
         650      1.61333  0.000409859 -0.000217679     -29.7092 
         650         1.92  0.000334988 -0.000243262     -29.7092 
         650      2.25333  0.000248355 -0.000264117     -29.7092 
         650      2.61333  0.000152686 -0.000278819     -29.7092 
         650            3  5.53981e-05 -0.000286078     -29.7092 
         700            0           -0           -0     -25.6448 
         700     0.013333  6.30191e-05  2.82961e-08     -25.6448 
         700     0.053333  0.000423655  5.70201e-07     -25.6448 
         700         0.12  0.000821116  3.57486e-06     -25.6448 
         700     0.213332   0.00107645  1.28654e-05     -25.6448 
         700     0.333332   0.00111164  3.25228e-05     -25.6448 
         700         0.48   0.00098877  6.43435e-05     -25.6448 
         700     0.653331  0.000830432   0.00010712     -25.6448 
         700     0.853332   0.00071981   0.00015804     -25.6448 
         700         1.08  0.000665182   0.00021391     -25.6448 
         700      1.33333  0.000621367  0.000271242     -25.6448 
         700      1.61333   0.00054214  0.000326524     -25.6448 
         700         1.92  0.000429258  0.000377214     -25.6448 
         700      2.25333  0.000302355  0.000420929     -25.6448 
         700      2.61333  0.000170783   0.00045513     -25.6448 
         700            3  3.82159e-05  0.000477462     -25.6448 
         750            0            0            0     -21.5789 
         750     0.013333 -0.000139045   1.5914e-07     -21.5789 
         750     0.053333 -0.000344957  2.31073e-06     -21.5789 
         750         0.12 -0.000728334  9.92307e-06     -21.5789 
         750     0.213332  -0.00120798  2.48871e-05     -21.5789 
         750     0.333332     -0.00163  4.54959e-05     -21.5789 
         750         0.48  -0.00188509  6.78881e-05     -21.5789 
         750     0.653331  -0.00197355  8.92797e-05     -21.5789 
         750     0.853332  -0.00194972   0.00010966     -21.5789 
         750         1.08   -0.0018422  0.000131047     -21.5789 
         750      1.33333  -0.00165467  0.000155011     -21.5789 
         750      1.61333  -0.00141735   0.00018058     -21.5789 
         750         1.92  -0.00117148  0.000205142     -21.5789 
         750      2.25333 -0.000914505  0.000226265     -21.5789 
         750      2.61333 -0.000644109  0.000242985     -21.5789 
         750            3 -0.000369128  0.000254319     -21.5789 
         800            0           -0           -0       -17.51 
         800     0.013333 -0.000185319 -7.86823e-08       -17.51 
         800     0.053333 -0.000436744 -1.28461e-06       -17.51 
         800         0.12 -0.000686124 -6.51439e-06       -17.51 
         800     0.213332 -0.000786716 -1.97745e-05       -17.51 
         800     0.333332 -0.000711859 -4.40477e-05       -17.51 
         800         0.48 -0.000549128 -7.95657e-05       -17.51 
         800     0.653331 -0.000406877 -0.000124338       -17.51 
         800     0.853332 -0.000341125 -0.000175936       -17.51 
         800         1.08 -0.000347786 -0.000232178       -17.51 
         800      1.33333 -0.000378773 -0.000290319       -17.51 
         800      1.61333  -0.00037698 -0.000346865       -17.51 
         800         1.92 -0.000334413 -0.000398824       -17.51 
         800      2.25333 -0.000276207  -0.00044402       -17.51 
         800      2.61333 -0.000214938 -0.000480038       -17.51 
         800            3 -0.000150946 -0.000504514       -17.51 
         850            0           -0           -0       -13.44 
         850     0.013333 -2.21785e-05 -6.00323e-08       -13.44 
         850     0.053333  0.000146035 -8.35438e-07       -13.44 
         850         0.12  0.000387606 -3.34509e-06       -13.44 
         850     0.213332  0.000641193 -7.61129e-06       -13.44 
         850     0.333332     0.000834 -1.22695e-05       -13.44 
         850         0.48  0.000936002 -1.56513e-05       -13.44 
         850     0.653331  0.000969449 -1.70384e-05       -13.44 
         850     0.853332  0.000969196 -1.70022e-05       -13.44 
         850         1.08  0.000941524  -1.7144e-05       -13.44 
         850      1.33333  0.000865598 -1.92976e-05       -13.44 
         850      1.61333  0.000739305 -2.40572e-05       -13.44 
         850         1.92  0.000597569   -3.005e-05       -13.44 
         850      2.25333  0.000454071 -3.61563e-05       -13.44 
         850      2.61333  0.000307429 -4.17321e-05       -13.44 
         850            3  0.000156202 -4.64885e-05       -13.44 
         900            0           -0           -0     -9.36934 
         900     0.013333 -5.34794e-05 -3.12565e-08     -9.36934 
         900     0.053333  2.73047e-05 -4.71214e-07     -9.36934 
         900         0.12   0.00015224 -2.12942e-06     -9.36934 
         900     0.213332  0.000305241 -5.63109e-06     -9.36934 
         900     0.333332  0.000443469 -1.07212e-05     -9.36934 
         900         0.48  0.000526036 -1.62376e-05     -9.36934 
         900     0.653331  0.000542978 -2.09103e-05     -9.36934 
         900     0.853332  0.000513942 -2.40802e-05     -9.36934 
         900         1.08  0.000467262 -2.55663e-05     -9.36934 
         900      1.33333  0.000424606 -2.52423e-05     -9.36934 
         900      1.61333  0.000387231 -2.33463e-05     -9.36934 
         900         1.92  0.000335837 -2.08727e-05     -9.36934 
         900      2.25333  0.000268487 -1.80987e-05     -9.36934 
         900      2.61333  0.000191781 -1.52602e-05     -9.36934 
         900            3   0.00011115 -1.23985e-05     -9.36935 
         950            0           -0           -0     -5.29672 
         950     0.013333  4.75343e-05  2.89926e-08     -5.29672 
         950     0.053333   0.00036739  5.69483e-07     -5.29672 
         950         0.12  0.000711153  3.50955e-06     -5.29672 
         950     0.213332  0.000912886  1.25001e-05     -5.29672 
         950     0.333332  0.000904069    3.135e-05     -5.29672 
         950         0.48  0.000754701  6.14694e-05     -5.29672 
         950     0.653331   0.00059309  0.000101152     -5.29672 
         950     0.853332  0.000499595  0.000147085     -5.29672 
         950         1.08  0.000468961  0.000195788     -5.29672 
         950      1.33333  0.000442194  0.000243914     -5.29672 
         950      1.61333  0.000377181  0.000289053     -5.29672 
         950         1.92  0.000290882  0.000330613     -5.29672 
         950      2.25333  0.000205416  0.000367697     -5.29673 
         950      2.61333   0.00012235  0.000398755     -5.29673 
         950            3  3.71734e-05  0.000421763     -5.29674 
        1000            0           -0           -0     -1.22323 
        1000     0.013333  -0.00012928   1.6412e-07     -1.22323 
        1000     0.053333 -0.000313822  2.36445e-06     -1.22323 
        1000         0.12 -0.000684345  1.00869e-05     -1.22323 
        1000     0.213332  -0.00117458  2.50339e-05     -1.22323 
        1000     0.333332   -0.0016225   4.5009e-05     -1.22323 
        1000         0.48  -0.00189259  6.55908e-05     -1.22323 
        1000     0.653331   -0.0019688  8.38215e-05     -1.22323 
        1000     0.853332  -0.00191321  0.000100117     -1.22323 
        1000         1.08  -0.00176919  0.000117304     -1.22324 
        1000      1.33333  -0.00154547  0.000137662     -1.22323 
        1000      1.61333  -0.00127999  0.000160187     -1.22323 
        1000         1.92  -0.00103644  0.000181403     -1.22323 
        1000      2.25333 -0.000804892  0.000198794     -1.22322 
        1000      2.61333 -0.000566557  0.000211689     -1.22321 
        1000            3 -0.000320785  0.000219657     -1.22319 
