Variables = x, y, u, v, p

Zone, I=416, F=POINT
         -50            0            0            0      -9.2143 
         -50     0.013333  2.22774e-06 -4.23135e-09      -9.2143 
         -50     0.053333 -1.12019e-05 -1.78788e-08      -9.2143 
         -50         0.12 -1.86583e-05 -4.42136e-08      -9.2143 
         -50     0.213332 -2.37077e-05  5.30832e-09      -9.2143 
         -50     0.333332  -2.4489e-05  1.04617e-07     -9.21429 
         -50         0.48 -2.23273e-05 -9.44736e-08     -9.21427 
         -50     0.653331 -1.97469e-05 -1.56335e-06     -9.21424 
         -50     0.853332 -1.89765e-05 -2.39157e-06     -9.21419 
         -50         1.08 -1.73324e-05 -2.89961e-06     -9.21413 
         -50      1.33333 -1.40237e-05  -3.6752e-06     -9.21404 
         -50      1.61333 -1.14602e-05 -4.19074e-06     -9.21392 
         -50         1.92 -3.86975e-06 -4.09515e-06     -9.21376 
         -50      2.25333  4.27285e-07  -4.3909e-06     -9.21355 
         -50      2.61333  7.06567e-07 -3.86934e-06     -9.21329 
         -50            3  2.77324e-06 -7.27513e-08     -9.21297 
         -25            0  1.24805e-20 -1.03865e-24     -8.84468 
         -25     0.013333 -1.50917e-06  3.04151e-09     -8.84468 
         -25     0.053333 -1.97302e-05  4.50445e-08     -8.84468 
         -25         0.12   -3.579e-05  1.33699e-07     -8.84468 
         -25     0.213332 -4.83073e-05  1.53552e-07     -8.84468 
         -25     0.333332 -5.45747e-05 -6.76045e-08     -8.84468 
         -25         0.48 -5.64429e-05 -5.37609e-07     -8.84467 
         -25     0.653331 -5.51486e-05 -1.30449e-06     -8.84466 
         -25     0.853332 -4.95366e-05 -2.04198e-06     -8.84464 
         -25         1.08 -3.99999e-05 -2.57759e-06     -8.84462 
         -25      1.33333 -3.06746e-05 -2.84039e-06     -8.84458 
         -25      1.61333 -2.39711e-05  -2.9039e-06     -8.84454 
         -25         1.92 -2.28415e-05 -3.27357e-06     -8.84448 
         -25      2.25333 -2.21929e-05 -2.23939e-06      -8.8444 
         -25      2.61333 -1.61268e-05  2.49148e-07      -8.8443 
         -25            3 -6.81777e-06  2.04171e-06     -8.84418 
           0            0  5.85062e-20 -1.09619e-19     -8.53452 
           0     0.013333  2.88253e-05 -1.30613e-05      -8.5349 
           0     0.053333  1.21947e-07 -2.55726e-06     -8.53562 
           0         0.12 -1.07075e-06  1.90714e-06     -8.53642 
           0     0.213332 -4.95311e-06  1.50311e-06     -8.53729 
           0     0.333332 -1.27255e-05  9.73482e-07     -8.53819 
           0         0.48 -2.25143e-05  6.39669e-07     -8.53911 
           0     0.653331 -3.02299e-05  3.68477e-07     -8.54005 
           0     0.853332 -3.35855e-05  1.97648e-07     -8.54098 
           0         1.08 -3.21795e-05  1.75578e-07      -8.5419 
           0      1.33333 -2.78953e-05    2.485e-07     -8.54281 
           0      1.61333 -2.26216e-05  3.11205e-07     -8.54368 
           0         1.92 -1.85567e-05   2.5823e-07     -8.54453 
           0      2.25333 -1.87875e-05  1.04346e-07     -8.54535 
           0      2.61333 -2.18946e-05 -3.51335e-07     -8.54613 
           0            3  -2.3383e-05 -6.10469e-07     -8.54686 
          20            0           -0           -0     -8.36209 
          20     0.013333 -1.31773e-05  -2.9443e-08     -8.36209 
          20     0.053333 -4.72207e-05 -4.67083e-07     -8.36209 
          20         0.12  -5.6282e-05 -2.37698e-06     -8.36209 
          20     0.213332 -3.30937e-05 -7.05837e-06     -8.36209 
          20     0.333332   5.2972e-06 -1.48601e-05     -8.36208 
          20         0.48  4.98955e-05  -2.4514e-05     -8.36207 
          20     0.653331  8.91669e-05 -3.52155e-05     -8.36205 
          20     0.853332  9.21425e-05 -4.78176e-05     -8.36201 
          20         1.08  7.15646e-05 -6.08968e-05     -8.36197 
          20      1.33333  5.02878e-05 -7.18952e-05      -8.3619 
          20      1.61333  3.18758e-05 -7.92579e-05     -8.36182 
          20         1.92  1.63718e-05  -8.2174e-05     -8.36171 
          20      2.25333  3.09292e-06  -8.0656e-05     -8.36157 
          20      2.61333 -4.74329e-06 -7.46374e-05     -8.36141 
          20            3 -3.40317e-06 -6.57305e-05     -8.36121 
          40            0           -0           -0     -8.16634 
          40     0.013333 -8.93965e-06 -8.48951e-08     -8.16634 
          40     0.053333 -2.20276e-05 -1.24487e-06     -8.16634 
          40         0.12   7.7746e-06 -5.36684e-06     -8.16634 
          40     0.213332  6.97055e-05 -1.33838e-05     -8.16634 
          40     0.333332  0.000123971 -2.44978e-05     -8.16633 
          40         0.48  0.000145444 -3.77907e-05     -8.16633 
          40     0.653331   0.00012895 -5.34812e-05     -8.16633 
          40     0.853332  8.53158e-05 -7.13444e-05     -8.16633 
          40         1.08  4.48522e-05 -8.88439e-05     -8.16632 
          40      1.33333  2.07951e-05 -0.000103028     -8.16631 
          40      1.61333  2.24636e-06 -0.000112251      -8.1663 
          40         1.92 -1.68703e-05 -0.000115407     -8.16629 
          40      2.25333 -3.27383e-05 -0.000112888     -8.16628 
          40      2.61333 -3.86507e-05 -0.000104954     -8.16625 
          40            3 -3.23148e-05 -9.25856e-05     -8.16623 
          60            0           -0           -0     -7.98341 
          60     0.013333  2.05602e-05 -1.65207e-08     -7.98341 
          60     0.053333  6.23048e-05 -1.51698e-07     -7.98341 
          60         0.12  0.000105693 -1.14574e-07     -7.98341 
          60     0.213332  0.000116441   1.2015e-06     -7.98341 
          60     0.333332  9.51764e-05  4.74945e-06     -7.98341 
          60         0.48  6.91481e-05  1.02596e-05     -7.98341 
          60     0.653331  5.41223e-05  1.63456e-05     -7.98341 
          60     0.853332  3.55288e-05  2.09724e-05     -7.98341 
          60         1.08  2.85679e-06   2.3226e-05      -7.9834 
          60      1.33333 -2.21059e-05  2.42166e-05      -7.9834 
          60      1.61333 -3.47169e-05  2.49201e-05      -7.9834 
          60         1.92 -4.49251e-05  2.48022e-05     -7.98339 
          60      2.25333 -5.10643e-05  2.39745e-05     -7.98338 
          60      2.61333 -5.25855e-05  2.23398e-05     -7.98337 
          60            3 -5.27627e-05  1.89689e-05     -7.98336 
          80            0           -0           -0     -7.80651 
          80     0.013333  3.42273e-05  2.03497e-08     -7.80651 
          80     0.053333  0.000103766  3.90684e-07     -7.80651 
          80         0.12  0.000165305   2.2506e-06     -7.80651 
          80     0.213332  0.000177861  7.25782e-06     -7.80651 
          80     0.333332  0.000152268  1.62852e-05     -7.80651 
          80         0.48  0.000125919  2.88188e-05     -7.80651 
          80     0.653331  0.000120178  4.35374e-05     -7.80651 
          80     0.853332  0.000120493  5.83691e-05     -7.80651 
          80         1.08  9.78052e-05  7.10386e-05      -7.8065 
          80      1.33333  5.96471e-05  8.06312e-05      -7.8065 
          80      1.61333  2.66346e-05  8.73697e-05      -7.8065 
          80         1.92 -2.73574e-06  9.06952e-05      -7.8065 
          80      2.25333 -2.72118e-05  8.97244e-05     -7.80649 
          80      2.61333 -4.50707e-05  8.52586e-05     -7.80649 
          80            3  -5.4589e-05  7.83734e-05     -7.80648 
         100            0  1.82305e-20 -5.69669e-26     -7.63332 
         100     0.013333  2.56243e-05  2.55461e-08     -7.63332 
         100     0.053333  7.34178e-05  4.39487e-07     -7.63332 
         100         0.12  0.000111902  2.28743e-06     -7.63332 
         100     0.213332   0.00011407  6.82321e-06     -7.63332 
         100     0.333332  9.40981e-05  1.44572e-05     -7.63332 
         100         0.48  8.02542e-05  2.45643e-05     -7.63332 
         100     0.653331  8.44713e-05  3.61463e-05     -7.63331 
         100     0.853332  9.30476e-05  4.77788e-05     -7.63331 
         100         1.08  8.32884e-05  5.77564e-05     -7.63331 
         100      1.33333  5.95004e-05  6.52167e-05     -7.63331 
         100      1.61333  3.60088e-05  7.02264e-05     -7.63331 
         100         1.92  1.06769e-05  7.22375e-05     -7.63331 
         100      2.25333 -1.34101e-05  7.09416e-05     -7.63331 
         100      2.61333 -3.20141e-05  6.67022e-05      -7.6333 
         100            3 -4.23001e-05  6.02151e-05      -7.6333 
         150            0           -0           -0     -7.20905 
         150     0.013333 -6.36268e-05  7.68489e-08     -7.20905 
         150     0.053333 -0.000248924   9.7633e-07     -7.20905 
         150         0.12  -0.00048312  3.26511e-06     -7.20905 
         150     0.213332 -0.000668816  5.32474e-06     -7.20905 
         150     0.333332 -0.000748138  4.13546e-06     -7.20905 
         150         0.48 -0.000746819  -1.8485e-06     -7.20905 
         150     0.653331 -0.000712583 -1.14353e-05     -7.20905 
         150     0.853332 -0.000650356 -2.16084e-05     -7.20905 
         150         1.08 -0.000545649 -3.02506e-05     -7.20905 
         150      1.33333 -0.000415286 -3.70711e-05     -7.20904 
         150      1.61333 -0.000279622 -4.26951e-05     -7.20904 
         150         1.92 -0.000140092 -4.68336e-05     -7.20903 
         150      2.25333 -1.22404e-05 -4.87453e-05     -7.20902 
         150      2.61333  8.84397e-05 -4.87606e-05       -7.209 
         150            3  0.000152069 -4.71338e-05     -7.20898 
         200            0            0            0     -6.78974 
         200     0.013333  -1.4713e-05 -1.78862e-09     -6.78974 
         200     0.053333 -6.04638e-05 -4.84569e-08     -6.78974 
         200         0.12 -0.000107668 -3.55093e-07     -6.78974 
         200     0.213332 -0.000139293  -1.3608e-06     -6.78974 
         200     0.333332 -0.000148752 -3.51714e-06     -6.78974 
         200         0.48 -0.000143818  -7.0242e-06     -6.78974 
         200     0.653331 -0.000135936 -1.18118e-05     -6.78974 
         200     0.853332 -0.000131495 -1.76223e-05     -6.78974 
         200         1.08 -0.000125706 -2.38364e-05     -6.78974 
         200      1.33333 -0.000107306 -2.93486e-05     -6.78974 
         200      1.61333 -7.88463e-05 -3.35426e-05     -6.78974 
         200         1.92 -4.75191e-05 -3.63424e-05     -6.78974 
         200      2.25333 -1.53391e-05  -3.7485e-05     -6.78973 
         200      2.61333  1.29928e-05 -3.70019e-05     -6.78973 
         200            3  3.19434e-05 -3.50866e-05     -6.78973 
         250            0           -0           -0     -6.37254 
         250     0.013333  -2.7893e-05   4.1256e-08     -6.37254 
         250     0.053333 -0.000117085  5.48051e-07     -6.37254 
         250         0.12 -0.000234565   2.0089e-06     -6.37254 
         250     0.213332  -0.00033718  3.94878e-06     -6.37254 
         250     0.333332 -0.000389989  5.03147e-06     -6.37254 
         250         0.48 -0.000397073  4.29228e-06     -6.37254 
         250     0.653331 -0.000381937  1.92986e-06     -6.37254 
         250     0.853332 -0.000353757 -9.04435e-07     -6.37254 
         250         1.08 -0.000306028 -3.09291e-06     -6.37254 
         250      1.33333 -0.000243471 -4.40648e-06     -6.37254 
         250      1.61333 -0.000179458 -5.43106e-06     -6.37253 
         250         1.92 -0.000113857 -6.35508e-06     -6.37253 
         250      2.25333 -4.61745e-05 -6.87163e-06     -6.37253 
         250      2.61333  1.71805e-05 -7.11616e-06     -6.37252 
         250            3  6.62145e-05 -7.08249e-06     -6.37251 
         300            0            0            0     -5.95588 
         300     0.013333 -5.35096e-06  5.20024e-08     -5.95588 
         300     0.053333 -4.12645e-05  7.52433e-07     -5.95588 
         300         0.12 -0.000109447  3.20445e-06     -5.95588 
         300     0.213332 -0.000196141  7.93747e-06     -5.95588 
         300     0.333332 -0.000265955   1.4347e-05     -5.95588 
         300         0.48 -0.000299141  2.13674e-05     -5.95588 
         300     0.653331 -0.000299719  2.84879e-05     -5.95588 
         300     0.853332  -0.00027618  3.59637e-05     -5.95588 
         300         1.08 -0.000233363  4.40453e-05     -5.95588 
         300      1.33333 -0.000183148  5.22119e-05     -5.95588 
         300      1.61333 -0.000136933  5.93992e-05     -5.95588 
         300         1.92 -9.15666e-05   6.4904e-05     -5.95588 
         300      2.25333 -4.61455e-05  6.83261e-05     -5.95588 
         300      2.61333 -4.38877e-06  6.92724e-05     -5.95587 
         300            3  2.85516e-05   6.7736e-05     -5.95587 
         350            0           -0           -0     -5.53931 
         350     0.013333  4.42454e-05  1.88573e-08     -5.53931 
         350     0.053333  0.000142461  3.48839e-07     -5.53931 
         350         0.12  0.000243336   1.9954e-06     -5.53931 
         350     0.213332  0.000289612  6.58657e-06     -5.53931 
         350     0.333332  0.000274553  1.53828e-05     -5.53931 
         350         0.48  0.000233662  2.84117e-05     -5.53931 
         350     0.653331  0.000203965  4.47319e-05     -5.53931 
         350     0.853332  0.000195364  6.30356e-05     -5.53931 
         350         1.08  0.000190689  8.17511e-05     -5.53931 
         350      1.33333  0.000169427  9.92469e-05     -5.53931 
         350      1.61333  0.000132941  0.000114503     -5.53931 
         350         1.92  9.23642e-05  0.000126869     -5.53931 
         350      2.25333  4.97482e-05  0.000135307     -5.53932 
         350      2.61333  7.56186e-06  0.000139073     -5.53932 
         350            3 -2.98576e-05  0.000137891     -5.53932 
         400            0           -0           -0     -5.12298 
         400     0.013333  1.59685e-05 -9.03047e-09     -5.12298 
         400     0.053333  4.84278e-05 -9.23128e-08     -5.12298 
         400         0.12  8.83154e-05 -1.44425e-07     -5.12298 
         400     0.213332  0.000110609  3.94027e-07     -5.12298 
         400     0.333332   0.00010952  2.14139e-06     -5.12298 
         400         0.48  9.93428e-05  5.10973e-06     -5.12298 
         400     0.653331  9.48229e-05  8.64349e-06     -5.12298 
         400     0.853332  9.36845e-05  1.17879e-05     -5.12298 
         400         1.08  8.18179e-05  1.36557e-05     -5.12298 
         400      1.33333    5.694e-05  1.40404e-05     -5.12298 
         400      1.61333  3.40193e-05  1.36313e-05     -5.12298 
         400         1.92  1.69762e-05  1.29289e-05     -5.12298 
         400      2.25333   1.2626e-06  1.18966e-05     -5.12298 
         400      2.61333 -1.34244e-05  1.05293e-05     -5.12298 
         400            3 -2.48962e-05   8.8792e-06     -5.12299 
         450            0            0            0     -4.70644 
         450     0.013333  4.71554e-05 -8.88232e-08     -4.70644 
         450     0.053333  0.000183798   -1.249e-06     -4.70644 
         450         0.12  0.000403521 -5.06553e-06     -4.70644 
         450     0.213332   0.00063398 -1.16708e-05     -4.70644 
         450     0.333332  0.000791523 -1.90774e-05     -4.70644 
         450         0.48  0.000848429 -2.49518e-05     -4.70644 
         450     0.653331  0.000835339  -2.8675e-05     -4.70644 
         450     0.853332  0.000782904 -3.14986e-05     -4.70644 
         450         1.08  0.000695268 -3.50402e-05     -4.70644 
         450      1.33333  0.000581321 -3.94879e-05     -4.70644 
         450      1.61333  0.000463952 -4.36038e-05     -4.70644 
         450         1.92  0.000345402 -4.66088e-05     -4.70645 
         450      2.25333  0.000219795 -4.82228e-05     -4.70645 
         450      2.61333  9.12026e-05 -4.84891e-05     -4.70646 
         450            3 -2.77731e-05 -4.73895e-05     -4.70647 
         500            0           -0           -0     -4.29038 
         500     0.013333 -5.50811e-05 -5.19483e-08     -4.29038 
         500     0.053333 -0.000188323 -8.68729e-07     -4.29038 
         500         0.12 -0.000295413 -4.47803e-06     -4.29038 
         500     0.213332 -0.000307625 -1.35582e-05     -4.29038 
         500     0.333332 -0.000237219 -2.95756e-05     -4.29038 
         500         0.48 -0.000155007   -5.176e-05     -4.29038 
         500     0.653331 -0.000117238 -7.81886e-05     -4.29038 
         500     0.853332 -0.000131702 -0.000107013     -4.29038 
         500         1.08 -0.000162935 -0.000136056     -4.29038 
         500      1.33333 -0.000162557 -0.000162539     -4.29038 
         500      1.61333 -0.000126266 -0.000184844     -4.29038 
         500         1.92   -8.762e-05 -0.000202782     -4.29038 
         500      2.25333 -5.15855e-05 -0.000215648     -4.29038 
         500      2.61333  -1.6789e-05 -0.000222264     -4.29038 
         500            3  1.48083e-05 -0.000221769     -4.29037 
         550            0            0            0     -3.87417 
         550     0.013333 -4.12429e-05  9.10059e-08     -3.87417 
         550     0.053333 -0.000179955   1.2735e-06     -3.87417 
         550         0.12 -0.000391787  5.12515e-06     -3.87417 
         550     0.213332 -0.000609612  1.16908e-05     -3.87417 
         550     0.333332 -0.000750532  1.89046e-05     -3.87417 
         550         0.48 -0.000791798  2.45246e-05     -3.87417 
         550     0.653331 -0.000769305   2.8236e-05     -3.87417 
         550     0.853332 -0.000713779  3.17405e-05     -3.87417 
         550         1.08 -0.000621228  3.72182e-05     -3.87417 
         550      1.33333 -0.000496818  4.50102e-05     -3.87417 
         550      1.61333 -0.000378398  5.30975e-05     -3.87417 
         550         1.92 -0.000276698  5.96699e-05     -3.87416 
         550      2.25333 -0.000174654  6.45442e-05     -3.87416 
         550      2.61333 -6.96681e-05  6.75225e-05     -3.87415 
         550            3  2.81681e-05   6.8343e-05     -3.87414 
         600            0           -0           -0     -3.45729 
         600     0.013333  0.000104441 -1.65029e-08     -3.45729 
         600     0.053333  0.000368559 -1.07051e-07     -3.45729 
         600         0.12  0.000688229  4.50922e-07     -3.45729 
         600     0.213332  0.000921196  4.15666e-06     -3.45729 
         600     0.333332  0.000994483  1.42456e-05     -3.45729 
         600         0.48  0.000944844   3.2364e-05     -3.45729 
         600     0.653331  0.000861653  5.76792e-05     -3.45728 
         600     0.853332   0.00080165  8.77902e-05     -3.45728 
         600         1.08  0.000754788  0.000119496     -3.45728 
         600      1.33333   0.00067616  0.000149554     -3.45728 
         600      1.61333  0.000556214  0.000176211     -3.45729 
         600         1.92    0.0004274  0.000199451     -3.45729 
         600      2.25333  0.000295398   0.00021861      -3.4573 
         600      2.61333   0.00016012  0.000232258      -3.4573 
         600            3   2.8681e-05  0.000239124     -3.45732 
         650            0            0            0     -3.04139 
         650     0.013333 -5.57937e-05  5.05264e-08     -3.04139 
         650     0.053333 -0.000224542  6.83642e-07     -3.04139 
         650         0.12 -0.000459299  2.59773e-06     -3.04139 
         650     0.213332 -0.000690292  5.41578e-06     -3.04139 
         650     0.333332 -0.000849833  7.54108e-06     -3.04139 
         650         0.48 -0.000922089  7.39212e-06     -3.04139 
         650     0.653331 -0.000937257  4.55354e-06     -3.04139 
         650     0.853332  -0.00092673 -1.31484e-07     -3.04139 
         650         1.08 -0.000891202 -4.99559e-06     -3.04139 
         650      1.33333 -0.000812235 -8.40444e-06     -3.04139 
         650      1.61333 -0.000691469 -9.75387e-06     -3.04139 
         650         1.92 -0.000556664 -9.93995e-06     -3.04139 
         650      2.25333  -0.00041431 -9.36022e-06     -3.04138 
         650      2.61333 -0.000264825 -8.31156e-06     -3.04138 
         650            3 -0.000115383 -6.90504e-06     -3.04137 
         700            0           -0           -0     -2.62464 
         700     0.013333  2.86811e-05  1.41509e-09     -2.62464 
         700     0.053333   8.9915e-05  7.92705e-08     -2.62464 
         700         0.12  0.000151172  7.46534e-07     -2.62464 
         700     0.213332  0.000164374  3.21654e-06     -2.62464 
         700     0.333332  0.000118539   8.7524e-06     -2.62464 
         700         0.48  4.65236e-05  1.75583e-05     -2.62464 
         700     0.653331 -9.76292e-06  2.85418e-05     -2.62463 
         700     0.853332 -3.73376e-05  4.00417e-05     -2.62463 
         700         1.08 -5.34406e-05  5.05597e-05     -2.62463 
         700      1.33333 -7.58037e-05  5.92819e-05     -2.62463 
         700      1.61333 -9.73788e-05  6.64439e-05     -2.62464 
         700         1.92 -0.000103772  7.27297e-05     -2.62464 
         700      2.25333  -9.9946e-05  7.77558e-05     -2.62464 
         700      2.61333 -9.11328e-05  8.12004e-05     -2.62464 
         700            3 -7.83091e-05  8.27418e-05     -2.62464 
         750            0            0            0      -2.2085 
         750     0.013333 -0.000136745  3.06749e-08      -2.2085 
         750     0.053333 -0.000508492  2.96183e-07      -2.2085 
         750         0.12 -0.000963925  2.15229e-07      -2.2085 
         750     0.213332  -0.00131774 -3.11539e-06      -2.2085 
         750     0.333332  -0.00145143 -1.40663e-05      -2.2085 
         750         0.48  -0.00139338 -3.54515e-05     -2.20851 
         750     0.653331  -0.00126208 -6.66912e-05     -2.20851 
         750     0.853332  -0.00114895   -0.0001047     -2.20851 
         750         1.08  -0.00106054  -0.00014547     -2.20851 
         750      1.33333  -0.00095233  -0.00018541     -2.20851 
         750      1.61333 -0.000805736 -0.000222583      -2.2085 
         750         1.92 -0.000645851 -0.000256591      -2.2085 
         750      2.25333 -0.000479897 -0.000286704     -2.20849 
         750      2.61333 -0.000306684 -0.000310948     -2.20848 
         750            3 -0.000130851 -0.000327323     -2.20847 
         800            0           -0           -0     -1.79094 
         800     0.013333  8.52515e-05 -2.02234e-07     -1.79094 
         800     0.053333  0.000362047 -2.93312e-06     -1.79094 
         800         0.12  0.000856997 -1.25532e-05     -1.79094 
         800     0.213332   0.00145927 -3.12615e-05     -1.79094 
         800     0.333332   0.00196649  -5.6477e-05     -1.79094 
         800         0.48   0.00224112 -8.29145e-05     -1.79094 
         800     0.653331   0.00229528 -0.000107067     -1.79094 
         800     0.853332   0.00221155 -0.000129306     -1.79094 
         800         1.08   0.00203655 -0.000152494     -1.79094 
         800      1.33333   0.00178394 -0.000178456     -1.79094 
         800      1.61333   0.00149484 -0.000205851     -1.79094 
         800         1.92   0.00121765 -0.000231185     -1.79095 
         800      2.25333  0.000937297 -0.000252636     -1.79096 
         800      2.61333  0.000639427 -0.000268929     -1.79097 
         800            3  0.000331917 -0.000278861     -1.79099 
         850            0           -0           -0     -1.37509 
         850     0.013333  0.000137508  2.21511e-07     -1.37509 
         850     0.053333   0.00041353  3.47124e-06     -1.37509 
         850         0.12  0.000560426  1.66793e-05     -1.37509 
         850     0.213332  0.000387352  4.78372e-05     -1.37509 
         850     0.333332 -4.23663e-05   0.00010094     -1.37509 
         850         0.48 -0.000495617  0.000173611     -1.37509 
         850     0.653331 -0.000780565  0.000260089     -1.37509 
         850     0.853332 -0.000845513   0.00035569     -1.37509 
         850         1.08  -0.00073835  0.000457546     -1.37509 
         850      1.33333 -0.000563425   0.00056167     -1.37509 
         850      1.61333 -0.000430285  0.000661994     -1.37509 
         850         1.92 -0.000361455  0.000753496     -1.37509 
         850      2.25333 -0.000301101   0.00083278     -1.37509 
         850      2.61333 -0.000226088  0.000896049     -1.37509 
         850            3  -0.00014508  0.000938895     -1.37509 
         900            0           -0           -0     -0.95923 
         900     0.013333 -0.000259956  8.77544e-08     -0.95923 
         900     0.053333 -0.000974274  1.04031e-06     -0.95923 
         900         0.12  -0.00189831  2.81586e-06     -0.95923 
         900     0.213332  -0.00269547  1.35346e-06    -0.959231 
         900     0.333332  -0.00311457 -1.06619e-05    -0.959231 
         900         0.48  -0.00315404 -3.88533e-05    -0.959232 
         900     0.653331  -0.00300183 -8.34768e-05    -0.959233 
         900     0.853332    -0.002837 -0.000140194    -0.959234 
         900         1.08    -0.002698 -0.000202313    -0.959235 
         900      1.33333  -0.00250297   -0.0002628    -0.959234 
         900      1.61333  -0.00219081 -0.000316979    -0.959231 
         900         1.92  -0.00181651  -0.00036446    -0.959225 
         900      2.25333  -0.00142784 -0.000406458    -0.959213 
         900      2.61333  -0.00102579 -0.000441054    -0.959196 
         900            3 -0.000604509 -0.000465441    -0.959171 
         950            0           -0           -0    -0.541356 
         950     0.013333 -7.02836e-05 -2.37668e-07    -0.541356 
         950     0.053333 -0.000185601 -3.61781e-06    -0.541356 
         950         0.12 -0.000126073 -1.67068e-05    -0.541356 
         950     0.213332  0.000208163 -4.59559e-05    -0.541357 
         950     0.333332   0.00070681 -9.33665e-05    -0.541357 
         950         0.48   0.00115755 -0.000155711    -0.541356 
         950     0.653331   0.00142383 -0.000228057    -0.541356 
         950     0.853332   0.00148803  -0.00030758    -0.541356 
         950         1.08    0.0013825 -0.000393925    -0.541355 
         950      1.33333   0.00116067 -0.000486114    -0.541355 
         950      1.61333  0.000916348 -0.000579798    -0.541356 
         950         1.92  0.000733127 -0.000668362    -0.541358 
         950      2.25333  0.000579359 -0.000747393    -0.541363 
         950      2.61333  0.000419701 -0.000813174    -0.541369 
         950            3  0.000249264 -0.000861965    -0.541379 
        1000            0           -0           -0    -0.124322 
        1000     0.013333  0.000121432  -5.8507e-08    -0.124322 
        1000     0.053333  0.000452723 -7.27052e-07    -0.124322 
        1000         0.12  0.000915915 -2.35969e-06    -0.124322 
        1000     0.213332   0.00136037 -3.36447e-06    -0.124322 
        1000     0.333332   0.00165424 -3.90524e-07    -0.124322 
        1000         0.48   0.00176736  9.37331e-06    -0.124322 
        1000     0.653331   0.00176763  2.63788e-05    -0.124321 
        1000     0.853332   0.00173754  4.88826e-05     -0.12432 
        1000         1.08   0.00169975  7.37182e-05     -0.12432 
        1000      1.33333    0.0016092  9.70494e-05     -0.12432 
        1000      1.61333   0.00142559  0.000116039    -0.124322 
        1000         1.92   0.00118453  0.000130693    -0.124326 
        1000      2.25333  0.000933507  0.000143054    -0.124332 
        1000      2.61333  0.000678756  0.000153059    -0.124342 
        1000            3  0.000410767  0.000159877    -0.124357 
