Variables = x, y, u, v, p

Zone, I=2080, F=POINT
         -50            0            0            0      91.4656 
         -50      0.00048  2.01649e-05  3.51892e-09      91.4656 
         -50     0.001922  7.15714e-05  1.34484e-08      91.4656 
         -50     0.004326  0.000131534   2.8126e-08      91.4656 
         -50      0.00769  0.000175946   4.5544e-08      91.4656 
         -50     0.012017  0.000192312   6.4195e-08      91.4656 
         -50     0.017304  0.000185909  8.35921e-08      91.4656 
         -50     0.023553  0.000174862  1.04401e-07      91.4656 
         -50     0.030763  0.000175538  1.27983e-07      91.4656 
         -50     0.038936  0.000187942   1.5577e-07      91.4656 
         -50     0.048069    0.0001954  1.88873e-07      91.4656 
         -50     0.058163  0.000187166  2.28254e-07      91.4656 
         -50     0.069219  0.000185505  2.74536e-07      91.4656 
         -50     0.081236  0.000195771  3.24082e-07      91.4656 
         -50     0.094215  0.000191259   3.7999e-07      91.4656 
         -50     0.108155  0.000192523  4.42037e-07      91.4656 
         -50     0.123056   0.00019193  5.10276e-07      91.4656 
         -50     0.138918  0.000191396  5.84774e-07      91.4656 
         -50     0.155744  0.000191295  6.64495e-07      91.4656 
         -50     0.173529  0.000191067  7.48916e-07      91.4655 
         -50     0.192276  0.000190226  8.39887e-07      91.4655 
         -50     0.211984  0.000189185  9.42097e-07      91.4655 
         -50     0.232655  0.000188833  1.05989e-06      91.4655 
         -50     0.254285  0.000187761  1.18946e-06      91.4655 
         -50     0.276877  0.000187137  1.36193e-06      91.4655 
         -50     0.300431  0.000186405  1.58367e-06      91.4655 
         -50     0.324946  0.000185655  1.83687e-06      91.4654 
         -50     0.350424  0.000184942  2.09258e-06      91.4654 
         -50     0.376861  0.000184291  2.31517e-06      91.4654 
         -50      0.40426  0.000183699  2.46935e-06      91.4653 
         -50     0.432621  0.000183146  2.52895e-06      91.4653 
         -50     0.461945  0.000182606   2.4874e-06      91.4653 
         -50     0.492228  0.000182054  2.36892e-06      91.4652 
         -50     0.523472  0.000181478  2.23859e-06      91.4652 
         -50     0.555678  0.000180866  2.20956e-06      91.4651 
         -50     0.588845  0.000180189  2.44415e-06      91.4651 
         -50     0.622976  0.000179394  2.99351e-06       91.465 
         -50     0.658066  0.000178572  3.39034e-06      91.4649 
         -50     0.694117  0.000177713  3.65662e-06      91.4649 
         -50      0.73113  0.000176814  3.81502e-06      91.4648 
         -50     0.769107  0.000175882  3.88812e-06      91.4647 
         -50     0.808042  0.000174927  3.89759e-06      91.4646 
         -50     0.847939  0.000173965  3.86349e-06      91.4645 
         -50     0.888797  0.000173015  3.80351e-06      91.4644 
         -50      0.93062  0.000172098  3.73234e-06      91.4643 
         -50       0.9734  0.000171237  3.66117e-06      91.4642 
         -50      1.01714  0.000170453  3.59732e-06       91.464 
         -50      1.06185  0.000169765  3.54425e-06      91.4639 
         -50      1.10751   0.00016919  3.50186e-06      91.4638 
         -50      1.15414  0.000168737  3.46724e-06      91.4636 
         -50      1.20173  0.000168411  3.43612e-06      91.4634 
         -50      1.25028  0.000168212  3.40486e-06      91.4633 
         -50      1.29979  0.000168136  3.37351e-06      91.4631 
         -50      1.35026  0.000168177  3.34981e-06      91.4629 
         -50       1.4017  0.000168335  3.35456e-06      91.4627 
         -50      1.45409  0.000168626  3.42838e-06      91.4624 
         -50      1.50745  0.000169076   3.6355e-06      91.4622 
         -50      1.56176  0.000169477  3.72089e-06      91.4619 
         -50      1.61705  0.000170481  3.83939e-06      91.4617 
         -50      1.67329  0.000171893  3.97293e-06      91.4614 
         -50      1.73049  0.000173547   4.1089e-06      91.4611 
         -50      1.78865  0.000175303  4.23993e-06      91.4608 
         -50      1.84778  0.000177053  4.36347e-06      91.4605 
         -50      1.90786  0.000178715  4.48122e-06      91.4602 
         -50      1.96891  0.000180236  4.59853e-06      91.4598 
         -50      2.03092  0.000181586  4.72351e-06      91.4594 
         -50      2.09389   0.00018276  4.86612e-06      91.4591 
         -50      2.15782  0.000183772  5.03712e-06      91.4586 
         -50      2.22272  0.000184651  5.24698e-06      91.4582 
         -50      2.28857  0.000185438  5.50474e-06      91.4578 
         -50      2.35539  0.000186179  5.81693e-06      91.4573 
         -50      2.42317  0.000186924  6.18649e-06      91.4568 
         -50      2.49191  0.000187717  6.61182e-06      91.4563 
         -50      2.56161  0.000188595  7.08617e-06      91.4558 
         -50      2.63226  0.000189581  7.59717e-06      91.4553 
         -50      2.70389  0.000190681  8.12691e-06      91.4547 
         -50      2.77648   0.00019188  8.65224e-06      91.4541 
         -50      2.85002  0.000193144  9.14616e-06      91.4535 
         -50      2.92453  0.000194414  9.57969e-06      91.4529 
         -50            3  0.000195618  9.92471e-06      91.4522 
         -25            0  1.46947e-19  1.24333e-23      87.8019 
         -25      0.00048  1.46464e-05  1.26757e-09      87.8019 
         -25     0.001922  5.19297e-05  4.81828e-09      87.8019 
         -25     0.004326  9.52396e-05  9.97607e-09      87.8019 
         -25      0.00769  0.000126933  1.58904e-08      87.8019 
         -25     0.012017  0.000137878  2.18353e-08      87.8019 
         -25     0.017304  0.000131978   2.7382e-08      87.8019 
         -25     0.023553  0.000122552  3.24188e-08      87.8019 
         -25     0.030763  0.000121637  3.69593e-08      87.8019 
         -25     0.038936  0.000129287  4.09047e-08      87.8019 
         -25     0.048069  0.000133338  4.39275e-08      87.8019 
         -25     0.058163  0.000125966  4.55806e-08      87.8019 
         -25     0.069219  0.000123532  4.52472e-08      87.8019 
         -25     0.081236  0.000130005  4.05247e-08      87.8019 
         -25     0.094215  0.000125852  3.17547e-08      87.8019 
         -25     0.108155  0.000126162  1.86105e-08      87.8019 
         -25     0.123056  0.000125358 -3.71771e-10      87.8019 
         -25     0.138918  0.000124853 -2.57467e-08      87.8019 
         -25     0.155744  0.000124915 -5.79213e-08      87.8019 
         -25     0.173529  0.000125125 -9.72535e-08      87.8019 
         -25     0.192276  0.000125103 -1.44209e-07      87.8019 
         -25     0.211984  0.000125126 -1.99359e-07      87.8019 
         -25     0.232655  0.000125815 -2.63101e-07      87.8019 
         -25     0.254285  0.000126105 -3.34749e-07      87.8019 
         -25     0.276877   0.00012682 -4.15304e-07      87.8019 
         -25     0.300431  0.000127524 -5.06995e-07      87.8019 
         -25     0.324946  0.000128251  -6.0981e-07      87.8019 
         -25     0.350424  0.000129013 -7.22488e-07      87.8019 
         -25     0.376861  0.000129806 -8.42656e-07      87.8018 
         -25      0.40426  0.000130611  -9.6724e-07      87.8018 
         -25     0.432621  0.000131405 -1.09291e-06      87.8018 
         -25     0.461945  0.000132172 -1.21671e-06      87.8018 
         -25     0.492228  0.000132904 -1.33663e-06      87.8018 
         -25     0.523472  0.000133611 -1.45224e-06      87.8018 
         -25     0.555678   0.00013431 -1.56492e-06      87.8018 
         -25     0.588845  0.000135001 -1.67763e-06      87.8017 
         -25     0.622976   0.00013566  -1.8068e-06      87.8017 
         -25     0.658066  0.000136342  -1.9571e-06      87.8017 
         -25     0.694117  0.000137056   -2.105e-06      87.8017 
         -25      0.73113  0.000137814 -2.24656e-06      87.8016 
         -25     0.769107  0.000138625 -2.37847e-06      87.8016 
         -25     0.808042  0.000139492 -2.49812e-06      87.8016 
         -25     0.847939  0.000140418 -2.60374e-06      87.8015 
         -25     0.888797  0.000141397 -2.69438e-06      87.8015 
         -25      0.93062  0.000142422 -2.76996e-06      87.8014 
         -25       0.9734  0.000143482 -2.83118e-06      87.8014 
         -25      1.01714  0.000144563 -2.87943e-06      87.8014 
         -25      1.06185  0.000145648 -2.91661e-06      87.8013 
         -25      1.10751  0.000146722 -2.94493e-06      87.8012 
         -25      1.15414  0.000147764 -2.96652e-06      87.8012 
         -25      1.20173  0.000148759 -2.98305e-06      87.8011 
         -25      1.25028  0.000149689 -2.99523e-06      87.8011 
         -25      1.29979   0.00015054  -3.0022e-06       87.801 
         -25      1.35026  0.000151298 -3.00077e-06      87.8009 
         -25       1.4017  0.000151949 -2.98463e-06      87.8008 
         -25      1.45409  0.000152481 -2.94335e-06      87.8008 
         -25      1.50745  0.000152889  -2.8641e-06      87.8007 
         -25      1.56176   0.00015351 -2.89352e-06      87.8006 
         -25      1.61705  0.000153495 -2.90798e-06      87.8005 
         -25      1.67329  0.000153019 -2.90571e-06      87.8004 
         -25      1.73049  0.000152233 -2.88611e-06      87.8003 
         -25      1.78865  0.000151267 -2.84974e-06      87.8001 
         -25      1.84778  0.000150226  -2.7981e-06         87.8 
         -25      1.90786  0.000149191 -2.73364e-06      87.7999 
         -25      1.96891  0.000148219 -2.65945e-06      87.7998 
         -25      2.03092  0.000147345 -2.57914e-06      87.7996 
         -25      2.09389  0.000146586 -2.49661e-06      87.7995 
         -25      2.15782   0.00014594 -2.41579e-06      87.7993 
         -25      2.22272  0.000145389 -2.34033e-06      87.7992 
         -25      2.28857  0.000144906 -2.27339e-06       87.799 
         -25      2.35539  0.000144455  -2.2173e-06      87.7988 
         -25      2.42317  0.000143997 -2.17333e-06      87.7987 
         -25      2.49191  0.000143495 -2.14141e-06      87.7985 
         -25      2.56161  0.000142914  -2.1199e-06      87.7983 
         -25      2.63226  0.000142232 -2.10546e-06      87.7981 
         -25      2.70389  0.000141435 -2.09292e-06      87.7979 
         -25      2.77648  0.000140528 -2.07532e-06      87.7977 
         -25      2.85002  0.000139531 -2.04395e-06      87.7974 
         -25      2.92453  0.000138482 -1.98873e-06      87.7972 
         -25            3  0.000137436 -1.89854e-06      87.7969 
           0            0  3.55196e-19 -4.67349e-19      84.7317 
           0      0.00048  5.02143e-05 -3.34303e-05      84.7319 
           0     0.001922  0.000175565 -0.000116957      84.7323 
           0     0.004326  0.000313655 -0.000209013       84.733 
           0      0.00769  0.000400269 -0.000266197       84.734 
           0     0.012017  0.000406283 -0.000267632      84.7351 
           0     0.017304  0.000353583 -0.000226197      84.7363 
           0     0.023553  0.000297616 -0.000178437      84.7376 
           0     0.030763  0.000282711 -0.000156428      84.7389 
           0     0.038936  0.000300683 -0.000160218      84.7403 
           0     0.048069  0.000296542 -0.000158306      84.7416 
           0     0.058163  0.000244569 -0.000131766       84.743 
           0     0.069219  0.000228999 -0.000124065      84.7444 
           0     0.081236  0.000259758 -0.000134611       84.746 
           0     0.094215  0.000228525  -0.00011348      84.7475 
           0     0.108155  0.000223204 -0.000111051       84.749 
           0     0.123056  0.000215934 -0.000106374      84.7506 
           0     0.138918  0.000210379 -0.000101258      84.7521 
           0     0.155744   0.00020661 -9.65827e-05      84.7538 
           0     0.173529  0.000202887 -9.25215e-05      84.7554 
           0     0.192276  0.000198247 -8.89817e-05       84.757 
           0     0.211984  0.000194314 -8.59665e-05      84.7587 
           0     0.232655  0.000193252 -8.32392e-05      84.7603 
           0     0.254285  0.000189725 -7.96004e-05       84.762 
           0     0.276877  0.000187816 -7.72628e-05      84.7637 
           0     0.300431  0.000185808 -7.47761e-05      84.7654 
           0     0.324946  0.000183838 -7.24431e-05      84.7671 
           0     0.350424  0.000181982 -7.03016e-05      84.7689 
           0     0.376861  0.000180179 -6.82703e-05      84.7706 
           0      0.40426  0.000178407 -6.63559e-05      84.7723 
           0     0.432621   0.00017666 -6.45521e-05      84.7741 
           0     0.461945  0.000174937 -6.28457e-05      84.7758 
           0     0.492228  0.000173249 -6.12315e-05      84.7775 
           0     0.523472  0.000171597 -5.97029e-05      84.7793 
           0     0.555678   0.00016999 -5.82533e-05       84.781 
           0     0.588845  0.000168437 -5.68772e-05      84.7828 
           0     0.622976  0.000166936 -5.55666e-05      84.7846 
           0     0.658066  0.000165494 -5.43177e-05      84.7863 
           0     0.694117  0.000164116 -5.31275e-05      84.7881 
           0      0.73113    0.0001628   -5.199e-05      84.7898 
           0     0.769107  0.000161544 -5.08997e-05      84.7916 
           0     0.808042  0.000160347 -4.98556e-05      84.7933 
           0     0.847939  0.000159207 -4.88563e-05      84.7951 
           0     0.888797  0.000158123  -4.7895e-05      84.7968 
           0      0.93062  0.000157078 -4.69659e-05      84.7985 
           0       0.9734  0.000156082 -4.60747e-05      84.8003 
           0      1.01714  0.000155132 -4.52156e-05       84.802 
           0      1.06185  0.000154224 -4.43842e-05      84.8037 
           0      1.10751  0.000153357 -4.35777e-05      84.8054 
           0      1.15414  0.000152524 -4.27952e-05      84.8071 
           0      1.20173  0.000151725 -4.20354e-05      84.8089 
           0      1.25028  0.000150963 -4.12983e-05      84.8105 
           0      1.29979  0.000150234 -4.05917e-05      84.8122 
           0      1.35026  0.000149538 -3.98876e-05      84.8139 
           0       1.4017  0.000148872  -3.9198e-05      84.8156 
           0      1.45409  0.000148241 -3.85253e-05      84.8172 
           0      1.50745  0.000147631 -3.78666e-05      84.8189 
           0      1.56176  0.000147031 -3.72199e-05      84.8205 
           0      1.61705  0.000146406 -3.65839e-05      84.8222 
           0      1.67329  0.000145725  -3.5957e-05      84.8238 
           0      1.73049  0.000144965 -3.53446e-05      84.8254 
           0      1.78865  0.000144106 -3.47552e-05       84.827 
           0      1.84778  0.000143093 -3.41761e-05      84.8286 
           0      1.90786  0.000141933 -3.36081e-05      84.8301 
           0      1.96891  0.000140727 -3.30608e-05      84.8317 
           0      2.03092  0.000139462 -3.24932e-05      84.8333 
           0      2.09389  0.000138231 -3.19129e-05      84.8348 
           0      2.15782  0.000137142 -3.13137e-05      84.8363 
           0      2.22272   0.00013634 -3.07042e-05      84.8378 
           0      2.28857  0.000135824  -3.0017e-05      84.8393 
           0      2.35539  0.000135569 -2.92738e-05      84.8408 
           0      2.42317  0.000135529 -2.85029e-05      84.8423 
           0      2.49191  0.000135651 -2.77376e-05      84.8437 
           0      2.56161  0.000135877 -2.70137e-05      84.8451 
           0      2.63226  0.000136146 -2.63708e-05      84.8466 
           0      2.70389  0.000136376 -2.58547e-05       84.848 
           0      2.77648  0.000136371 -2.55014e-05      84.8494 
           0      2.85002  0.000135989 -2.53011e-05      84.8507 
           0      2.92453  0.000135402 -2.53479e-05      84.8521 
           0            3  0.000134515 -2.56545e-05      84.8534 
          20            0           -0           -0      83.0248 
          20      0.00048    1.156e-05  2.52559e-09      83.0248 
          20     0.001922  4.07193e-05  1.04143e-08      83.0248 
          20     0.004326  7.37036e-05  2.47348e-08      83.0248 
          20      0.00769  9.58735e-05  4.77158e-08      83.0248 
          20     0.012017  9.96242e-05  8.32219e-08      83.0248 
          20     0.017304  8.81472e-05   1.3686e-07      83.0248 
          20     0.023553  7.24359e-05  2.15826e-07      83.0248 
          20     0.030763  6.24472e-05  3.28174e-07      83.0248 
          20     0.038936  5.82458e-05  4.82069e-07      83.0248 
          20     0.048069  4.98259e-05  6.85046e-07      83.0248 
          20     0.058163  3.08147e-05  9.43965e-07      83.0248 
          20     0.069219  1.49044e-05  1.26447e-06      83.0248 
          20     0.081236  5.58285e-06  1.64737e-06      83.0248 
          20     0.094215 -1.30811e-05   2.0972e-06      83.0248 
          20     0.108155 -2.83129e-05  2.61602e-06      83.0248 
          20     0.123056 -4.44271e-05  3.20062e-06      83.0248 
          20     0.138918 -5.99424e-05  3.84836e-06      83.0248 
          20     0.155744 -7.43206e-05  4.55587e-06      83.0248 
          20     0.173529 -8.76059e-05  5.31808e-06      83.0248 
          20     0.192276 -9.98497e-05  6.12847e-06      83.0248 
          20     0.211984 -0.000110606  6.97876e-06      83.0248 
          20     0.232655 -0.000119197  7.86123e-06      83.0248 
          20     0.254285  -0.00012639  8.77277e-06      83.0248 
          20     0.276877 -0.000131536  9.70083e-06      83.0248 
          20     0.300431 -0.000135006  1.06357e-05      83.0247 
          20     0.324946 -0.000136957  1.15665e-05      83.0247 
          20     0.350424 -0.000137642  1.24788e-05      83.0247 
          20     0.376861  -0.00013738  1.33552e-05      83.0247 
          20      0.40426 -0.000136568  1.41758e-05      83.0247 
          20     0.432621 -0.000135599  1.49185e-05      83.0246 
          20     0.461945 -0.000134833  1.55614e-05      83.0246 
          20     0.492228 -0.000134561  1.60846e-05      83.0246 
          20     0.523472 -0.000134957  1.64725e-05      83.0245 
          20     0.555678 -0.000136044  1.67164e-05      83.0245 
          20     0.588845 -0.000137675  1.68162e-05      83.0245 
          20     0.622976 -0.000139539  1.67817e-05      83.0244 
          20     0.658066 -0.000141213  1.66327e-05      83.0244 
          20     0.694117  -0.00014227  1.63962e-05      83.0243 
          20      0.73113 -0.000142407  1.60986e-05      83.0243 
          20     0.769107  -0.00014125  1.57624e-05      83.0242 
          20     0.808042  -0.00013867  1.54097e-05      83.0241 
          20     0.847939 -0.000134629  1.50537e-05      83.0241 
          20     0.888797 -0.000129168   1.4703e-05       83.024 
          20      0.93062 -0.000122395   1.4363e-05      83.0239 
          20       0.9734 -0.000114467  1.40367e-05      83.0238 
          20      1.01714 -0.000105579  1.37193e-05      83.0237 
          20      1.06185 -9.58951e-05  1.34121e-05      83.0236 
          20      1.10751 -8.55547e-05  1.31117e-05      83.0235 
          20      1.15414 -7.46598e-05  1.28119e-05      83.0234 
          20      1.20173 -6.33109e-05  1.25176e-05      83.0233 
          20      1.25028 -5.15738e-05  1.22217e-05      83.0232 
          20      1.29979 -3.95154e-05  1.19247e-05       83.023 
          20      1.35026 -2.71815e-05   1.1629e-05      83.0229 
          20       1.4017 -1.46037e-05  1.13343e-05      83.0228 
          20      1.45409 -1.80624e-06  1.10399e-05      83.0226 
          20      1.50745  1.11768e-05  1.07459e-05      83.0224 
          20      1.56176   2.4289e-05  1.04535e-05      83.0223 
          20      1.61705  3.74533e-05   1.0163e-05      83.0221 
          20      1.67329   5.0617e-05  9.86784e-06      83.0219 
          20      1.73049  6.36663e-05  9.57527e-06      83.0217 
          20      1.78865  7.65077e-05  9.28085e-06      83.0215 
          20      1.84778  8.90087e-05  8.97925e-06      83.0213 
          20      1.90786  0.000101038  8.67277e-06      83.0211 
          20      1.96891  0.000112479  8.35981e-06      83.0209 
          20      2.03092  0.000123233  8.03723e-06      83.0206 
          20      2.09389  0.000133215  7.70408e-06      83.0204 
          20      2.15782  0.000142324  7.35779e-06      83.0201 
          20      2.22272  0.000150519  7.00044e-06      83.0198 
          20      2.28857  0.000157796  6.63981e-06      83.0195 
          20      2.35539  0.000164172  6.28348e-06      83.0193 
          20      2.42317   0.00016966   5.9325e-06       83.019 
          20      2.49191  0.000174271  5.58164e-06      83.0186 
          20      2.56161  0.000178178  5.28586e-06      83.0183 
          20      2.63226   0.00018141  5.02513e-06       83.018 
          20      2.70389  0.000184088  4.83233e-06      83.0176 
          20      2.77648  0.000186304   4.7266e-06      83.0173 
          20      2.85002  0.000188135  4.71561e-06      83.0169 
          20      2.92453  0.000189661  4.81096e-06      83.0165 
          20            3  0.000190926  5.02669e-06      83.0162 
          40            0           -0           -0      81.0883 
          40      0.00048  1.05172e-05  3.72178e-10      81.0883 
          40     0.001922  3.71983e-05  2.23714e-09      81.0883 
          40     0.004326  6.78815e-05  7.82902e-09      81.0883 
          40      0.00769  8.96211e-05  2.08241e-08      81.0883 
          40     0.012017  9.56484e-05  4.62795e-08      81.0883 
          40     0.017304  8.86795e-05  9.04191e-08      81.0883 
          40     0.023553  7.82867e-05  1.60432e-07      81.0883 
          40     0.030763  7.31142e-05  2.64075e-07      81.0883 
          40     0.038936  7.30863e-05  4.09357e-07      81.0883 
          40     0.048069  6.92487e-05  6.04045e-07      81.0883 
          40     0.058163  5.58421e-05  8.55507e-07      81.0883 
          40     0.069219  4.47715e-05  1.17033e-06      81.0883 
          40     0.081236  3.89588e-05  1.55356e-06      81.0883 
          40     0.094215  2.42372e-05   2.0097e-06      81.0883 
          40     0.108155  1.17179e-05  2.54161e-06      81.0883 
          40     0.123056 -2.51009e-06  3.15019e-06      81.0883 
          40     0.138918 -1.72375e-05  3.83509e-06      81.0883 
          40     0.155744 -3.20652e-05  4.59465e-06      81.0883 
          40     0.173529 -4.70786e-05  5.42545e-06      81.0883 
          40     0.192276 -6.23369e-05  6.32308e-06      81.0883 
          40     0.211984 -7.74255e-05  7.28192e-06      81.0883 
          40     0.232655 -9.16976e-05  8.29607e-06      81.0883 
          40     0.254285 -0.000105751  9.36006e-06      81.0883 
          40     0.276877 -0.000118833  1.04657e-05      81.0883 
          40     0.300431 -0.000131143  1.16075e-05      81.0883 
          40     0.324946 -0.000142564  1.27816e-05      81.0883 
          40     0.350424 -0.000153017  1.39842e-05      81.0883 
          40     0.376861 -0.000162452  1.52109e-05      81.0883 
          40      0.40426  -0.00017085  1.64589e-05      81.0882 
          40     0.432621 -0.000178204  1.77266e-05      81.0882 
          40     0.461945 -0.000184517  1.90149e-05      81.0882 
          40     0.492228 -0.000189785  2.03263e-05      81.0882 
          40     0.523472 -0.000193996  2.16647e-05      81.0882 
          40     0.555678 -0.000197134  2.30331e-05      81.0882 
          40     0.588845 -0.000199201  2.44289e-05      81.0882 
          40     0.622976 -0.000200236  2.58424e-05      81.0882 
          40     0.658066 -0.000200201  2.73094e-05      81.0882 
          40     0.694117 -0.000199114  2.88279e-05      81.0882 
          40      0.73113 -0.000197003  3.03846e-05      81.0882 
          40     0.769107 -0.000193897  3.19712e-05      81.0882 
          40     0.808042 -0.000189819  3.35834e-05      81.0882 
          40     0.847939 -0.000184793  3.52205e-05      81.0882 
          40     0.888797 -0.000178837  3.68841e-05      81.0882 
          40      0.93062 -0.000171971  3.85766e-05      81.0882 
          40       0.9734 -0.000164219  4.02992e-05      81.0881 
          40      1.01714 -0.000155607  4.20511e-05      81.0881 
          40      1.06185 -0.000146167  4.38275e-05      81.0881 
          40      1.10751 -0.000135943  4.56186e-05      81.0881 
          40      1.15414  -0.00012499  4.74098e-05      81.0881 
          40      1.20173 -0.000113382  4.91813e-05      81.0881 
          40      1.25028 -0.000101208  5.09119e-05      81.0881 
          40      1.29979  -8.8574e-05  5.25825e-05       81.088 
          40      1.35026 -7.56046e-05  5.41835e-05       81.088 
          40       1.4017 -6.24398e-05  5.57255e-05       81.088 
          40      1.45409 -4.92237e-05  5.72548e-05       81.088 
          40      1.50745 -3.60977e-05   5.8865e-05       81.088 
          40      1.56176 -2.29754e-05  6.00998e-05      81.0879 
          40      1.61705 -9.74733e-06  6.12756e-05      81.0879 
          40      1.67329  3.47264e-06  6.23757e-05      81.0879 
          40      1.73049  1.65864e-05  6.33866e-05      81.0879 
          40      1.78865  2.95077e-05  6.42982e-05      81.0878 
          40      1.84778  4.21642e-05  6.51032e-05      81.0878 
          40      1.90786  5.44928e-05  6.57971e-05      81.0878 
          40      1.96891  6.64461e-05  6.63788e-05      81.0878 
          40      2.03092  7.79864e-05  6.68493e-05      81.0877 
          40      2.09389  8.90871e-05   6.7212e-05      81.0877 
          40      2.15782  9.97269e-05  6.74722e-05      81.0877 
          40      2.22272  0.000109895  6.76366e-05      81.0876 
          40      2.28857  0.000119582  6.77128e-05      81.0876 
          40      2.35539  0.000128785  6.77086e-05      81.0875 
          40      2.42317  0.000137498  6.76317e-05      81.0875 
          40      2.49191  0.000145713  6.74891e-05      81.0875 
          40      2.56161  0.000153422  6.72862e-05      81.0874 
          40      2.63226  0.000160608  6.70268e-05      81.0874 
          40      2.70389  0.000167249  6.67119e-05      81.0873 
          40      2.77648  0.000173313  6.63403e-05      81.0873 
          40      2.85002  0.000178761  6.59076e-05      81.0872 
          40      2.92453  0.000183548  6.54063e-05      81.0871 
          40            3  0.000187623  6.48266e-05      81.0871 
          60            0           -0           -0      79.2787 
          60      0.00048  1.09408e-05  1.98402e-10      79.2787 
          60     0.001922  3.90959e-05  1.16167e-09      79.2787 
          60     0.004326  7.27981e-05  4.00785e-09      79.2787 
          60      0.00769  9.96124e-05  1.06397e-08      79.2787 
          60     0.012017  0.000113013  2.38019e-08      79.2787 
          60     0.017304  0.000115531  4.70812e-08      79.2787 
          60     0.023553  0.000116249  8.49245e-08      79.2787 
          60     0.030763  0.000123334   1.4255e-07      79.2787 
          60     0.038936  0.000136579  2.25889e-07      79.2787 
          60     0.048069  0.000147238  3.41392e-07      79.2787 
          60     0.058163  0.000149608  4.95989e-07      79.2787 
          60     0.069219  0.000154889  6.96888e-07      79.2787 
          60     0.081236  0.000165655  9.51134e-07      79.2787 
          60     0.094215   0.00016811  1.26601e-06      79.2787 
          60     0.108155  0.000172668  1.64827e-06      79.2787 
          60     0.123056  0.000175364  2.10404e-06      79.2787 
          60     0.138918  0.000177155  2.63867e-06      79.2787 
          60     0.155744  0.000178248  3.25663e-06      79.2787 
          60     0.173529  0.000178411    3.961e-06      79.2787 
          60     0.192276   0.00017748  4.75399e-06      79.2787 
          60     0.211984  0.000175775  5.63655e-06      79.2787 
          60     0.232655  0.000173879  6.60852e-06      79.2787 
          60     0.254285  0.000171217  7.66806e-06      79.2787 
          60     0.276877  0.000168534  8.81389e-06      79.2787 
          60     0.300431  0.000165694   1.0043e-05      79.2787 
          60     0.324946  0.000162879  1.13512e-05      79.2787 
          60     0.350424  0.000160243  1.27349e-05      79.2787 
          60     0.376861  0.000157914    1.419e-05      79.2787 
          60      0.40426  0.000155988   1.5713e-05      79.2787 
          60     0.432621  0.000154538  1.73002e-05      79.2787 
          60     0.461945  0.000153614  1.89474e-05      79.2787 
          60     0.492228  0.000153251  2.06501e-05      79.2787 
          60     0.523472  0.000153471  2.24038e-05      79.2787 
          60     0.555678  0.000154278  2.42044e-05      79.2787 
          60     0.588845   0.00015564  2.60496e-05      79.2787 
          60     0.622976  0.000157472  2.79396e-05      79.2787 
          60     0.658066  0.000159755  2.98566e-05      79.2787 
          60     0.694117  0.000162384  3.17955e-05      79.2787 
          60      0.73113  0.000165226  3.37548e-05      79.2787 
          60     0.769107  0.000168143  3.57304e-05      79.2787 
          60     0.808042  0.000170994  3.77149e-05      79.2787 
          60     0.847939  0.000173643  3.96995e-05      79.2787 
          60     0.888797  0.000175961  4.16736e-05      79.2787 
          60      0.93062  0.000177829  4.36259e-05      79.2787 
          60       0.9734  0.000179148  4.55446e-05      79.2787 
          60      1.01714  0.000179838  4.74194e-05      79.2787 
          60      1.06185  0.000179847   4.9241e-05      79.2787 
          60      1.10751  0.000179151  5.10025e-05      79.2787 
          60      1.15414  0.000177758  5.26994e-05      79.2786 
          60      1.20173  0.000175708  5.43294e-05      79.2786 
          60      1.25028  0.000173071  5.58914e-05      79.2786 
          60      1.29979  0.000169944  5.73841e-05      79.2786 