Variables = x, y, u, v, p

Zone, I=2080, F=POINT
         -50            0            0            0      -199.25 
         -50      0.00048 -5.06518e-05 -8.22423e-09      -199.25 
         -50     0.001922 -0.000178132  -3.0761e-08      -199.25 
         -50     0.004326 -0.000321834  -6.2169e-08      -199.25 
         -50      0.00769 -0.000418759 -9.64211e-08      -199.25 
         -50     0.012017 -0.000439098 -1.29943e-07      -199.25 
         -50     0.017304 -0.000402119 -1.63135e-07      -199.25 
         -50     0.023553 -0.000360531  -1.9972e-07      -199.25 
         -50     0.030763 -0.000358426 -2.43852e-07      -199.25 
         -50     0.038936 -0.000391074 -2.97119e-07      -199.25 
         -50     0.048069 -0.000407555  -3.5814e-07      -199.25 
         -50     0.058163 -0.000379219 -4.26644e-07      -199.25 
         -50     0.069219 -0.000375652  -5.0793e-07      -199.25 
         -50     0.081236  -0.00040287 -6.00777e-07      -199.25 
         -50     0.094215 -0.000389345 -7.04667e-07      -199.25 
         -50     0.108155 -0.000393547 -8.24995e-07      -199.25 
         -50     0.123056 -0.000391405 -9.62492e-07      -199.25 
         -50     0.138918  -0.00039029 -1.12038e-06      -199.25 
         -50     0.155744 -0.000391429 -1.30122e-06     -199.249 
         -50     0.173529 -0.000392385 -1.50783e-06     -199.249 
         -50     0.192276 -0.000391063 -1.74454e-06     -199.249 
         -50     0.211984 -0.000389033 -2.01723e-06     -199.249 
         -50     0.232655 -0.000389744 -2.33091e-06     -199.249 
         -50     0.254285 -0.000387404 -2.68493e-06     -199.249 
         -50     0.276877 -0.000386856 -3.08959e-06     -199.249 
         -50     0.300431 -0.000385749 -3.54763e-06     -199.249 
         -50     0.324946 -0.000384433 -4.04735e-06     -199.249 
         -50     0.350424 -0.000383137 -4.55297e-06     -199.249 
         -50     0.376861  -0.00038197 -5.01494e-06     -199.249 
         -50      0.40426 -0.000380948 -5.38487e-06     -199.249 
         -50     0.432621 -0.000380037  -5.6325e-06     -199.249 
         -50     0.461945 -0.000379191 -5.76251e-06     -199.249 
         -50     0.492228 -0.000378398 -5.82642e-06     -199.249 
         -50     0.523472 -0.000377697   -5.923e-06     -199.249 
         -50     0.555678 -0.000377137 -6.17838e-06     -199.249 
         -50     0.588845 -0.000376669 -6.69388e-06     -199.248 
         -50     0.622976 -0.000376085  -7.5554e-06     -199.248 
         -50     0.658066 -0.000375661 -8.52138e-06     -199.248 
         -50     0.694117 -0.000375325 -9.36334e-06     -199.248 
         -50      0.73113 -0.000375039 -1.00989e-05     -199.248 
         -50     0.769107 -0.000374773  -1.0745e-05     -199.248 
         -50     0.808042 -0.000374504 -1.13171e-05     -199.247 
         -50     0.847939  -0.00037422 -1.18303e-05     -199.247 
         -50     0.888797 -0.000373913 -1.22983e-05     -199.247 
         -50      0.93062 -0.000373587 -1.27347e-05     -199.247 
         -50       0.9734 -0.000373248 -1.31522e-05     -199.247 
         -50      1.01714 -0.000372907 -1.35632e-05     -199.246 
         -50      1.06185 -0.000372578   -1.398e-05     -199.246 
         -50      1.10751 -0.000372275 -1.44147e-05     -199.246 
         -50      1.15414 -0.000372009 -1.48783e-05     -199.245 
         -50      1.20173  -0.00037179 -1.53801e-05     -199.245 
         -50      1.25028 -0.000371625 -1.59262e-05     -199.245 
         -50      1.29979 -0.000371518  -1.6517e-05     -199.244 
         -50      1.35026 -0.000371475 -1.71435e-05     -199.244 
         -50       1.4017 -0.000371507 -1.77819e-05     -199.243 
         -50      1.45409  -0.00037164 -1.83874e-05     -199.243 
         -50      1.50745 -0.000371945 -1.88797e-05     -199.242 
         -50      1.56176  -0.00037254 -1.90706e-05     -199.242 
         -50      1.61705 -0.000372272 -1.93328e-05     -199.241 
         -50      1.67329 -0.000371432  -1.9662e-05     -199.241 
         -50      1.73049 -0.000370269  -2.0049e-05      -199.24 
         -50      1.78865 -0.000368983 -2.04799e-05     -199.239 
         -50      1.84778 -0.000367732 -2.09371e-05     -199.239 
         -50      1.90786 -0.000366628 -2.13999e-05     -199.238 
         -50      1.96891  -0.00036574 -2.18452e-05     -199.237 
         -50      2.03092 -0.000365099 -2.22492e-05     -199.236 
         -50      2.09389 -0.000364702 -2.25878e-05     -199.235 
         -50      2.15782 -0.000364516 -2.28384e-05     -199.235 
         -50      2.22272 -0.000364485 -2.29807e-05     -199.234 
         -50      2.28857 -0.000364539 -2.29986e-05     -199.233 
         -50      2.35539   -0.0003646  -2.2881e-05     -199.232 
         -50      2.42317 -0.000364588 -2.26233e-05     -199.231 
         -50      2.49191 -0.000364437 -2.22281e-05      -199.23 
         -50      2.56161 -0.000364091 -2.17063e-05     -199.228 
         -50      2.63226 -0.000363523 -2.10778e-05     -199.227 
         -50      2.70389 -0.000362733 -2.03709e-05     -199.226 
         -50      2.77648 -0.000361757 -1.96226e-05     -199.225 
         -50      2.85002 -0.000360666  -1.8877e-05     -199.223 
         -50      2.92453 -0.000359565 -1.81838e-05     -199.222 
         -50            3 -0.000358589 -1.75949e-05     -199.221 
         -25            0 -3.70041e-19 -3.08213e-23     -191.255 
         -25      0.00048  -3.6772e-05 -3.15158e-09     -191.255 
         -25     0.001922  -0.00012914 -1.21151e-08     -191.255 
         -25     0.004326 -0.000232666  -2.5757e-08     -191.255 
         -25      0.00769 -0.000301159 -4.32535e-08     -191.255 
         -25     0.012017 -0.000312771  -6.5134e-08     -191.255 
         -25     0.017304 -0.000281649 -9.36951e-08     -191.255 
         -25     0.023553 -0.000246471 -1.32616e-07     -191.255 
         -25     0.030763 -0.000239609 -1.85678e-07     -191.255 
         -25     0.038936 -0.000257653 -2.55492e-07     -191.255 
         -25     0.048069  -0.00026334 -3.43144e-07     -191.255 
         -25     0.058163 -0.000235749  -4.4964e-07     -191.255 
         -25     0.069219 -0.000226004 -5.77404e-07     -191.255 
         -25     0.081236 -0.000238638 -7.25516e-07     -191.255 
         -25     0.094215 -0.000221322 -8.92653e-07     -191.255 
         -25     0.108155 -0.000217059 -1.07914e-06     -191.255 
         -25     0.123056 -0.000208323 -1.28188e-06     -191.255 
         -25     0.138918 -0.000200634  -1.4984e-06     -191.255 
         -25     0.155744 -0.000194993 -1.72565e-06     -191.255 
         -25     0.173529 -0.000189699 -1.95997e-06     -191.255 
         -25     0.192276 -0.000183276  -2.1975e-06     -191.255 
         -25     0.211984 -0.000176913 -2.43428e-06     -191.255 
         -25     0.232655 -0.000173152 -2.66673e-06     -191.255 
         -25     0.254285 -0.000167742 -2.89209e-06     -191.255 
         -25     0.276877 -0.000164208 -3.10647e-06     -191.255 
         -25     0.300431 -0.000160783  -3.3064e-06     -191.255 
         -25     0.324946  -0.00015767 -3.49094e-06     -191.255 
         -25     0.350424 -0.000154977 -3.66008e-06     -191.255 
         -25     0.376861 -0.000152727 -3.81454e-06     -191.255 
         -25      0.40426 -0.000150878 -3.95586e-06     -191.255 
         -25     0.432621 -0.000149364 -4.08607e-06     -191.255 
         -25     0.461945  -0.00014813 -4.20744e-06     -191.255 
         -25     0.492228 -0.000147166 -4.32209e-06     -191.255 
         -25     0.523472 -0.000146516 -4.43154e-06     -191.255 
         -25     0.555678 -0.000146253 -4.53612e-06     -191.255 
         -25     0.588845 -0.000146379  -4.6344e-06     -191.255 
         -25     0.622976 -0.000146799 -4.70713e-06     -191.255 
         -25     0.658066 -0.000147724 -4.76358e-06     -191.255 
         -25     0.694117 -0.000149116 -4.83543e-06     -191.255 
         -25      0.73113 -0.000151008 -4.92378e-06     -191.255 
         -25     0.769107 -0.000153414 -5.02957e-06     -191.255 
         -25     0.808042 -0.000156325 -5.15351e-06     -191.255 
         -25     0.847939 -0.000159718 -5.29585e-06     -191.255 
         -25     0.888797 -0.000163549 -5.45624e-06     -191.254 
         -25      0.93062 -0.000167765  -5.6336e-06     -191.254 
         -25       0.9734 -0.000172304 -5.82585e-06     -191.254 
         -25      1.01714 -0.000177101 -6.03005e-06     -191.254 
         -25      1.06185 -0.000182093 -6.24221e-06     -191.254 
         -25      1.10751 -0.000187227 -6.45754e-06     -191.254 
         -25      1.15414  -0.00019246 -6.67071e-06     -191.254 
         -25      1.20173 -0.000197761 -6.87631e-06     -191.254 
         -25      1.25028 -0.000203118 -7.06975e-06     -191.253 
         -25      1.29979 -0.000208529 -7.24838e-06     -191.253 
         -25      1.35026 -0.000213994  -7.4131e-06     -191.253 
         -25       1.4017 -0.000219502  -7.5705e-06     -191.253 
         -25      1.45409 -0.000225007 -7.73577e-06     -191.253 
         -25      1.50745 -0.000230414 -7.93989e-06     -191.253 
         -25      1.56176 -0.000236462 -8.24125e-06     -191.252 
         -25      1.61705 -0.000241949 -8.37065e-06     -191.252 
         -25      1.67329 -0.000247036 -8.40247e-06     -191.252 
         -25      1.73049  -0.00025186 -8.39945e-06     -191.252 
         -25      1.78865 -0.000256531 -8.41206e-06     -191.252 
         -25      1.84778 -0.000261131 -8.47816e-06     -191.251 
         -25      1.90786 -0.000265714 -8.62283e-06     -191.251 
         -25      1.96891 -0.000270309  -8.8586e-06     -191.251 
         -25      2.03092 -0.000274917 -9.18586e-06      -191.25 
         -25      2.09389 -0.000279519 -9.59367e-06      -191.25 
         -25      2.15782 -0.000284072 -1.00606e-05      -191.25 
         -25      2.22272 -0.000288517 -1.05566e-05     -191.249 
         -25      2.28857  -0.00029278 -1.10437e-05     -191.249 
         -25      2.35539  -0.00029678 -1.14791e-05     -191.249 
         -25      2.42317  -0.00030043 -1.18162e-05     -191.248 
         -25      2.49191 -0.000303642 -1.20076e-05     -191.248 
         -25      2.56161 -0.000306338 -1.20074e-05     -191.247 
         -25      2.63226  -0.00030845 -1.17738e-05     -191.247 
         -25      2.70389 -0.000309926 -1.12717e-05     -191.247 
         -25      2.77648 -0.000310739 -1.04756e-05     -191.246 
         -25      2.85002 -0.000310886 -9.37148e-06     -191.246 
         -25      2.92453 -0.000310396 -7.95957e-06     -191.245 
         -25            3 -0.000309331 -6.25559e-06     -191.245 
           0            0 -9.53345e-19   1.1688e-18     -184.552 
           0      0.00048 -0.000120909   8.4989e-05     -184.553 
           0     0.001922  -0.00041911  0.000295911     -184.554 
           0     0.004326 -0.000736557  0.000523947     -184.556 
           0      0.00769 -0.000913943  0.000656641     -184.558 
           0     0.012017 -0.000886019  0.000642324     -184.561 
           0     0.017304 -0.000720419  0.000519091     -184.563 
           0     0.023553 -0.000567441   0.00038641     -184.566 
           0     0.030763  -0.00053945  0.000328974     -184.569 
           0     0.038936 -0.000603098  0.000343463     -184.572 
           0     0.048069 -0.000602142   0.00034226     -184.575 
           0     0.058163 -0.000469515  0.000274843     -184.578 
           0     0.069219 -0.000440181  0.000260121     -184.581 
           0     0.081236 -0.000515083  0.000283315     -184.584 
           0     0.094215 -0.000443608  0.000236889     -184.588 
           0     0.108155 -0.000436676  0.000233522     -184.591 
           0     0.123056 -0.000417226  0.000219447     -184.594 
           0     0.138918 -0.000404433  0.000206691     -184.598 
           0     0.155744 -0.000399667   0.00019815     -184.601 
           0     0.173529 -0.000394724  0.000191016     -184.605 
           0     0.192276 -0.000384225  0.000182461     -184.608 
           0     0.211984 -0.000374782  0.000174319     -184.612 
           0     0.232655 -0.000376561  0.000170322     -184.616 
           0     0.254285 -0.000367602  0.000161946     -184.619 
           0     0.276877  -0.00036479  0.000157344     -184.623 
           0     0.300431 -0.000361196  0.000152333     -184.627 
           0     0.324946 -0.000357392  0.000147525     -184.631 
           0     0.350424 -0.000353914  0.000143224     -184.634 
           0     0.376861 -0.000350445  0.000139159     -184.638 
           0      0.40426  -0.00034698  0.000135395     -184.642 
           0     0.432621 -0.000343541  0.000131883     -184.646 
           0     0.461945 -0.000340066  0.000128599      -184.65 
           0     0.492228  -0.00033659  0.000125531     -184.653 
           0     0.523472 -0.000333106   0.00012266     -184.657 
           0     0.555678 -0.000329625  0.000119975     -184.661 
           0     0.588845 -0.000326154  0.000117456     -184.665 
           0     0.622976 -0.000322708  0.000115093     -184.669 
           0     0.658066 -0.000319304  0.000112871     -184.673 
           0     0.694117 -0.000315961   0.00011078     -184.676 
           0      0.73113   -0.0003127  0.000108808      -184.68 
           0     0.769107 -0.000309543  0.000106943     -184.684 
           0     0.808042  -0.00030651  0.000105178     -184.688 
           0     0.847939 -0.000303613  0.000103507     -184.692 
           0     0.888797 -0.000300868  0.000101911     -184.695 
           0      0.93062 -0.000298269  0.000100389     -184.699 
           0       0.9734 -0.000295812  9.89325e-05     -184.703 
           0      1.01714  -0.00029349   9.7535e-05     -184.707 
           0      1.06185 -0.000291282  9.61895e-05     -184.711 
           0      1.10751  -0.00028916  9.48897e-05     -184.714 
           0      1.15414  -0.00028709  9.36293e-05     -184.718 
           0      1.20173 -0.000285047  9.24039e-05     -184.722 
           0      1.25028 -0.000283007  9.12113e-05     -184.725 
           0      1.29979 -0.000280947  9.00481e-05     -184.729 
           0      1.35026 -0.000278854  8.89052e-05     -184.733 
           0       1.4017 -0.000276739  8.77798e-05     -184.736 
           0      1.45409 -0.000274607  8.66658e-05      -184.74 
           0      1.50745 -0.000272478  8.55613e-05     -184.744 
           0      1.56176  -0.00027037  8.44586e-05     -184.747 
           0      1.61705  -0.00026831  8.33605e-05     -184.751 
           0      1.67329 -0.000266306  8.22664e-05     -184.754 
           0      1.73049 -0.000264339  8.11678e-05     -184.758 
           0      1.78865 -0.000262381  8.00593e-05     -184.761 
           0      1.84778 -0.000260444  7.89615e-05     -184.765 
           0      1.90786 -0.000258497    7.786e-05     -184.768 
           0      1.96891 -0.000256524  7.67328e-05     -184.772 
           0      2.03092 -0.000254584  7.56152e-05     -184.775 
           0      2.09389 -0.000252635  7.44784e-05     -184.778 
           0      2.15782 -0.000250658  7.33256e-05     -184.782 
           0      2.22272 -0.000248582  7.21686e-05     -184.785 
           0      2.28857   -0.0002464  7.10683e-05     -184.788 
           0      2.35539 -0.000244069  7.00289e-05     -184.792 
           0      2.42317 -0.000241558  6.90478e-05     -184.795 
           0      2.49191 -0.000238855  6.81194e-05     -184.798 
           0      2.56161 -0.000235974   6.7234e-05     -184.801 
           0      2.63226 -0.000232964  6.63744e-05     -184.804 
           0      2.70389 -0.000229915  6.55066e-05     -184.807 
           0      2.77648 -0.000226979  6.45666e-05      -184.81 
           0      2.85002 -0.000224261  6.35026e-05     -184.813 
           0      2.92453 -0.000221816  6.22853e-05     -184.816 
           0            3 -0.000219731  6.08891e-05     -184.819 
          20            0           -0           -0     -180.827 
          20      0.00048 -2.93809e-05 -6.20067e-09     -180.827 
          20     0.001922  -0.00010266 -2.43121e-08     -180.827 
          20     0.004326 -0.000183049  -5.3503e-08     -180.827 
          20      0.00769 -0.000232326 -9.43816e-08     -180.827 
          20     0.012017 -0.000232428 -1.50931e-07     -180.827 
          20     0.017304 -0.000195142 -2.31139e-07     -180.827 
          20     0.023553 -0.000152585 -3.46097e-07     -180.827 
          20     0.030763 -0.000131703 -5.07251e-07     -180.827 
          20     0.038936 -0.000129849  -7.2372e-07     -180.827 
          20     0.048069 -0.000116402 -1.00126e-06     -180.827 
          20     0.058163 -7.43164e-05 -1.34488e-06     -180.827 
          20     0.069219 -4.62481e-05 -1.76157e-06     -180.827 
          20     0.081236 -3.63245e-05 -2.25088e-06     -180.827 
          20     0.094215 -1.58937e-06 -2.81041e-06     -180.827 
          20     0.108155  2.19086e-05 -3.43965e-06     -180.827 
          20     0.123056  4.82851e-05 -4.13117e-06     -180.827 
          20     0.138918  7.25793e-05  -4.8775e-06     -180.827 
          20     0.155744  9.35882e-05 -5.66923e-06     -180.827 
          20     0.173529  0.000112386  -6.4955e-06     -180.827 
          20     0.192276  0.000129937 -7.34573e-06     -180.827 
          20     0.211984  0.000145079 -8.20963e-06     -180.827 
          20     0.232655  0.000155575 -9.07661e-06     -180.827 
          20     0.254285   0.00016485 -9.93418e-06     -180.827 
          20     0.276877  0.000170249 -1.07752e-05     -180.827 
          20     0.300431  0.000173156 -1.15859e-05     -180.827 
          20     0.324946  0.000173724 -1.23579e-05     -180.827 
          20     0.350424  0.000172262  -1.3078e-05     -180.827 
          20     0.376861   0.00016922 -1.37266e-05     -180.826 
          20      0.40426   0.00016518   -1.428e-05     -180.826 
          20     0.432621   0.00016072 -1.47107e-05     -180.826 
          20     0.461945  0.000156395 -1.49897e-05     -180.826 
          20     0.492228  0.000152682  -1.5089e-05     -180.826 
          20     0.523472  0.000149919 -1.49846e-05     -180.826 
          20     0.555678  0.000148247   -1.466e-05     -180.826 
          20     0.588845   0.00014758 -1.41094e-05     -180.826 
          20     0.622976  0.000147595 -1.33396e-05     -180.826 
          20     0.658066  0.000147778 -1.23714e-05     -180.826 
          20     0.694117  0.000147555 -1.12371e-05     -180.826 
          20      0.73113  0.000146431 -9.97951e-06     -180.826 
          20     0.769107  0.000143871 -8.63842e-06     -180.825 
          20     0.808042  0.000139552 -7.24843e-06     -180.825 
          20     0.847939  0.000133293 -5.84241e-06     -180.825 
          20     0.888797  0.000125074 -4.44325e-06     -180.825 
          20      0.93062  0.000115001 -3.06534e-06     -180.825 
          20       0.9734  0.000103265 -1.71702e-06     -180.825 
          20      1.01714  9.00875e-05 -4.06246e-07     -180.824 
          20      1.06185  7.57056e-05  8.67273e-07     -180.824 
          20      1.10751  6.03391e-05  2.10493e-06     -180.824 
          20      1.15414  4.41584e-05  3.30286e-06     -180.824 
          20      1.20173  2.73442e-05  4.46483e-06     -180.823 
          20      1.25028  9.96195e-06  5.58395e-06     -180.823 
          20      1.29979 -7.86348e-06  6.66306e-06     -180.823 
          20      1.35026  -2.6042e-05  7.70323e-06     -180.823 
          20       1.4017 -4.45109e-05  8.70003e-06     -180.822 
          20      1.45409 -6.32129e-05  9.64778e-06     -180.822 
          20      1.50745 -8.20699e-05  1.05429e-05     -180.822 
          20      1.56176 -0.000100979  1.13876e-05     -180.821 
          20      1.61705 -0.000119831  1.21867e-05     -180.821 
          20      1.67329 -0.000138494  1.29205e-05      -180.82 
          20      1.73049 -0.000156855  1.36045e-05      -180.82 
          20      1.78865 -0.000174781  1.42372e-05      -180.82 
          20      1.84778 -0.000192081  1.48096e-05     -180.819 
          20      1.90786 -0.000208626  1.53223e-05     -180.819 
          20      1.96891 -0.000224307  1.57753e-05     -180.818 
          20      2.03092 -0.000239018  1.61661e-05     -180.818 
          20      2.09389 -0.000252639  1.64924e-05     -180.817 
          20      2.15782 -0.000265158  1.67461e-05     -180.817 
          20      2.22272 -0.000276571  1.69264e-05     -180.816 
          20      2.28857  -0.00028683  1.70383e-05     -180.815 
          20      2.35539 -0.000295918  1.70843e-05     -180.815 
          20      2.42317 -0.000303882  1.70604e-05     -180.814 
          20      2.49191 -0.000310846   1.6959e-05     -180.813 
          20      2.56161 -0.000316676  1.68182e-05     -180.813 
          20      2.63226  -0.00032159  1.66089e-05     -180.812 
          20      2.70389 -0.000325601  1.63453e-05     -180.811 
          20      2.77648 -0.000328772  1.60338e-05      -180.81 
          20      2.85002 -0.000331173  1.56895e-05      -180.81 
          20      2.92453 -0.000332857  1.53247e-05     -180.809 
          20            3 -0.000333861  1.49568e-05     -180.808 
          40            0           -0           -0     -176.598 
          40      0.00048 -2.54985e-05 -8.97296e-10     -176.598 
          40     0.001922 -8.88931e-05 -5.07094e-09     -176.598 
          40     0.004326 -0.000157758 -1.69489e-08     -176.598 
          40      0.00769 -0.000198391 -4.38147e-08     -176.598 
          40     0.012017 -0.000194828 -9.56138e-08     -176.598 
          40     0.017304  -0.00015739 -1.84312e-07     -176.598 
          40     0.023553 -0.000114303 -3.23127e-07     -176.598 
          40     0.030763 -8.92579e-05  -5.2525e-07     -176.598 
          40     0.038936 -7.99067e-05 -8.02769e-07     -176.598 
          40     0.048069 -5.93056e-05 -1.16548e-06     -176.598 
          40     0.058163 -1.24931e-05 -1.62075e-06     -176.598 
          40     0.069219  2.28839e-05 -2.17308e-06     -176.598 
          40     0.081236  4.30795e-05  -2.8223e-06     -176.598 
          40     0.094215  8.57599e-05 -3.56442e-06     -176.598 
          40     0.108155  0.000119042 -4.39195e-06     -176.598 
          40     0.123056  0.000155168 -5.29228e-06     -176.598 
          40     0.138918  0.000189597 -6.25014e-06     -176.598 
          40     0.155744  0.000221119 -7.24798e-06     -176.598 
          40     0.173529  0.000250552 -8.26585e-06     -176.598 
          40     0.192276  0.000278638 -9.28301e-06     -176.598 
          40     0.211984  0.000304267 -1.02783e-05     -176.598 
          40     0.232655  0.000325443 -1.12324e-05     -176.598 
          40     0.254285  0.000345217 -1.21312e-05     -176.598 
          40     0.276877  0.000361064 -1.29538e-05     -176.598 
          40     0.300431  0.000374394 -1.36907e-05     -176.598 
          40     0.324946  0.000385246 -1.43395e-05     -176.598 
          40     0.350424   0.00039376 -1.48984e-05     -176.598 
          40     0.376861  0.000400149 -1.53666e-05     -176.598 
          40      0.40426  0.000404672  -1.5747e-05     -176.598 
          40     0.432621  0.000407586 -1.60474e-05     -176.598 
          40     0.461945  0.000409109 -1.62819e-05     -176.598 
          40     0.492228  0.000409378 -1.64705e-05     -176.598 
          40     0.523472  0.000408441 -1.66363e-05     -176.598 
          40     0.555678  0.000406278 -1.67988e-05     -176.598 
          40     0.588845  0.000402885 -1.69603e-05     -176.598 
          40     0.622976  0.000398346 -1.71023e-05     -176.598 
          40     0.658066  0.000392445  -1.7341e-05     -176.598 
          40     0.694117  0.000385122  -1.7679e-05     -176.598 
          40      0.73113  0.000376319 -1.80851e-05     -176.598 
          40     0.769107  0.000365992 -1.85417e-05     -176.598 
          40     0.808042  0.000354112 -1.90422e-05     -176.598 
          40     0.847939  0.000340664 -1.95897e-05     -176.598 
          40     0.888797  0.000325646 -2.01932e-05     -176.598 
          40      0.93062  0.000309076 -2.08643e-05     -176.598 
          40       0.9734  0.000290992 -2.16124e-05     -176.598 
          40      1.01714  0.000271447 -2.24414e-05     -176.598 
          40      1.06185  0.000250518 -2.33458e-05     -176.598 
          40      1.10751  0.000228301 -2.43082e-05     -176.598 
          40      1.15414  0.000204913  -2.5299e-05     -176.598 
          40      1.20173  0.000180502  -2.6279e-05     -176.598 
          40      1.25028  0.000155234 -2.72065e-05     -176.598 
          40      1.29979  0.000129301 -2.80501e-05     -176.598 
          40      1.35026  0.000102923 -2.88092e-05     -176.598 
          40       1.4017  7.63535e-05 -2.95437e-05     -176.597 
          40      1.45409  4.98743e-05 -3.04171e-05     -176.597 
          40      1.50745  2.37887e-05 -3.17279e-05     -176.597 
          40      1.56176 -2.54113e-06 -3.21339e-05     -176.597 
          40      1.61705 -2.85372e-05 -3.25777e-05     -176.597 
          40      1.67329 -5.41468e-05 -3.30413e-05     -176.597 
          40      1.73049 -7.93156e-05 -3.35083e-05     -176.597 
          40      1.78865  -0.00010398  -3.3964e-05     -176.597 
          40      1.84778 -0.000128072 -3.43956e-05     -176.597 
          40      1.90786  -0.00015151 -3.47919e-05     -176.597 
          40      1.96891 -0.000174216 -3.51439e-05     -176.597 
          40      2.03092 -0.000196104 -3.54446e-05     -176.597 
          40      2.09389 -0.000217091 -3.56889e-05     -176.597 
          40      2.15782 -0.000237084 -3.58735e-05     -176.597 
          40      2.22272    -0.000256 -3.59971e-05     -176.597 
          40      2.28857 -0.000273758 -3.60598e-05     -176.597 
          40      2.35539 -0.000290281 -3.60633e-05     -176.596 
          40      2.42317 -0.000305502 -3.60107e-05     -176.596 
          40      2.49191  -0.00031936 -3.59057e-05     -176.596 
          40      2.56161  -0.00033181 -3.57531e-05     -176.596 
          40      2.63226 -0.000342822 -3.55577e-05     -176.596 
          40      2.70389 -0.000352381 -3.53247e-05     -176.596 
          40      2.77648  -0.00036049  -3.5059e-05     -176.596 
          40      2.85002 -0.000367172 -3.47648e-05     -176.596 
          40      2.92453 -0.000372471 -3.44455e-05     -176.596 
          40            3  -0.00037645 -3.41033e-05     -176.595 
          60            0           -0           -0     -172.646 
          60      0.00048 -2.50155e-05 -5.10201e-10     -172.646 
          60     0.001922 -8.75132e-05 -3.11508e-09     -172.646 
          60     0.004326 -0.000156425 -1.10148e-08     -172.646 
          60      0.00769 -0.000199451 -2.94427e-08     -172.646 
          60     0.012017 -0.000201276 -6.55025e-08     -172.646 
          60     0.017304 -0.000171744  -1.2772e-07     -172.646 
          60     0.023553 -0.000137838 -2.25542e-07     -172.646 
          60     0.030763 -0.000122169 -3.68517e-07     -172.646 
          60     0.038936 -0.000122386 -5.65629e-07     -172.646 
          60     0.048069 -0.000112544 -8.24506e-07     -172.646 
          60     0.058163 -7.81548e-05  -1.1513e-06     -172.646 
          60     0.069219 -5.51022e-05 -1.55039e-06     -172.646 
          60     0.081236 -4.67741e-05 -2.02327e-06     -172.646 
          60     0.094215 -1.68802e-05 -2.56907e-06     -172.646 
          60     0.108155   4.2534e-06 -3.18469e-06     -172.646 
          60     0.123056  2.85628e-05 -3.86378e-06     -172.646 
          60     0.138918  5.18878e-05 -4.59827e-06     -172.646 
          60     0.155744  7.32378e-05 -5.37866e-06     -172.646 
          60     0.173529  9.35309e-05 -6.19366e-06     -172.646 
          60     0.192276  0.000113573 -7.03127e-06     -172.646 
          60     0.211984  0.000132354 -7.87877e-06     -172.646 
          60     0.232655  0.000147971 -8.72436e-06     -172.646 
          60     0.254285  0.000163324  -9.5592e-06     -172.646 
          60     0.276877   0.00017593 -1.03686e-05     -172.646 
          60     0.300431  0.000187058 -1.11452e-05     -172.646 
          60     0.324946   0.00019664 -1.18862e-05     -172.646 
          60     0.350424  0.000204705 -1.25879e-05     -172.646 
          60     0.376861  0.000211358 -1.32463e-05     -172.646 
          60      0.40426  0.000216755 -1.38596e-05     -172.646 
          60     0.432621  0.000221067 -1.44289e-05     -172.646 
          60     0.461945  0.000224439 -1.49605e-05     -172.646 
          60     0.492228  0.000226953 -1.54652e-05     -172.646 
          60     0.523472  0.000228611 -1.59575e-05     -172.646 
          60     0.555678  0.000229346 -1.64507e-05     -172.646 
          60     0.588845  0.000229093  -1.6947e-05     -172.646 
          60     0.622976  0.000227733 -1.74437e-05     -172.646 
          60     0.658066  0.000225143 -1.80206e-05     -172.646 
          60     0.694117  0.000221176 -1.86834e-05     -172.646 
          60      0.73113  0.000215463 -1.94322e-05     -172.646 
          60     0.769107  0.000207752 -2.02714e-05     -172.646 
          60     0.808042  0.000197921 -2.12085e-05     -172.646 
          60     0.847939  0.000185966 -2.22526e-05     -172.646 
          60     0.888797  0.000172001 -2.34116e-05     -172.646 
          60      0.93062   0.00015624 -2.46906e-05     -172.646 
          60       0.9734  0.000138988 -2.60888e-05     -172.646 
          60      1.01714  0.000120604  -2.7598e-05     -172.646 
          60      1.06185  0.000101485 -2.92006e-05     -172.646 
          60      1.10751  8.20226e-05  -3.0869e-05     -172.646 
          60      1.15414  6.25807e-05 -3.25668e-05     -172.646 
          60      1.20173  4.34632e-05 -3.42509e-05     -172.646 
          60      1.25028  2.48821e-05 -3.58779e-05     -172.646 
          60      1.29979  6.94635e-06 -3.74136e-05     -172.646 