Variables = x, y, u, v, p

Zone, I=2080, F=POINT
         -50            0            0            0     -5.40342 
         -50      0.00048  1.24251e-05  6.68393e-10     -5.40342 
         -50     0.001922  4.41061e-05  2.41191e-09     -5.40342 
         -50     0.004326  8.11231e-05  4.59632e-09     -5.40342 
         -50      0.00769   0.00010881  6.59559e-09     -5.40342 
         -50     0.012017  0.000119784  8.13749e-09     -5.40342 
         -50     0.017304  0.000117578  9.31858e-09     -5.40342 
         -50     0.023553  0.000113309   1.0175e-08     -5.40342 
         -50     0.030763  0.000116473  9.95932e-09     -5.40342 
         -50     0.038936  0.000126198  6.66322e-09     -5.40342 
         -50     0.048069  0.000131996 -2.48164e-09     -5.40342 
         -50     0.058163   0.00012886  -1.9095e-08     -5.40342 
         -50     0.069219   0.00013304 -4.11978e-08     -5.40342 
         -50     0.081236  0.000142463 -6.40838e-08     -5.40342 
         -50     0.094215   0.00014383 -9.19371e-08     -5.40342 
         -50     0.108155  0.000149147 -1.22051e-07     -5.40342 
         -50     0.123056  0.000152579 -1.52237e-07     -5.40342 
         -50     0.138918  0.000156339 -1.80729e-07     -5.40342 
         -50     0.155744  0.000160759 -2.05669e-07     -5.40342 
         -50     0.173529  0.000165052 -2.25395e-07     -5.40342 
         -50     0.192276   0.00016855 -2.38871e-07     -5.40341 
         -50     0.211984   0.00017171 -2.46115e-07     -5.40341 
         -50     0.232655  0.000175559 -2.48624e-07     -5.40341 
         -50     0.254285   0.00017826 -2.49619e-07     -5.40341 
         -50     0.276877  0.000181322 -2.51266e-07     -5.40341 
         -50     0.300431   0.00018398 -2.62321e-07     -5.40341 
         -50     0.324946  0.000186343 -2.86476e-07      -5.4034 
         -50     0.350424  0.000188481   -3.173e-07      -5.4034 
         -50     0.376861  0.000190424 -3.40905e-07      -5.4034 
         -50      0.40426  0.000192173 -3.40184e-07      -5.4034 
         -50     0.432621  0.000193713 -3.00173e-07      -5.4034 
         -50     0.461945  0.000195028 -2.13817e-07     -5.40339 
         -50     0.492228   0.00019611 -8.68785e-08     -5.40339 
         -50     0.523472  0.000196966  5.99366e-08     -5.40339 
         -50     0.555678  0.000197602   1.9412e-07     -5.40338 
         -50     0.588845  0.000197975  2.83328e-07     -5.40338 
         -50     0.622976  0.000198014  3.64735e-07     -5.40337 
         -50     0.658066  0.000197744  4.92622e-07     -5.40337 
         -50     0.694117   0.00019706  6.21111e-07     -5.40336 
         -50      0.73113  0.000195962  7.56822e-07     -5.40336 
         -50     0.769107  0.000194451  8.99894e-07     -5.40335 
         -50     0.808042  0.000192534  1.04498e-06     -5.40334 
         -50     0.847939  0.000190218   1.1828e-06     -5.40334 
         -50     0.888797  0.000187517    1.302e-06     -5.40333 
         -50      0.93062  0.000184448  1.39131e-06     -5.40332 
         -50       0.9734  0.000181035  1.44192e-06     -5.40331 
         -50      1.01714  0.000177306  1.44978e-06     -5.40331 
         -50      1.06185  0.000173298  1.41751e-06      -5.4033 
         -50      1.10751   0.00016905  1.35566e-06     -5.40329 
         -50      1.15414  0.000164611   1.2828e-06     -5.40328 
         -50      1.20173  0.000160031  1.22396e-06     -5.40326 
         -50      1.25028  0.000155363  1.20657e-06     -5.40325 
         -50      1.29979  0.000150659  1.25327e-06     -5.40324 
         -50      1.35026  0.000145962  1.37058e-06     -5.40323 
         -50       1.4017  0.000141304  1.53219e-06     -5.40321 
         -50      1.45409  0.000136691  1.65569e-06      -5.4032 
         -50      1.50745  0.000132106  1.58432e-06     -5.40318 
         -50      1.56176  0.000128348  1.89694e-06     -5.40317 
         -50      1.61705   0.00012484  2.03786e-06     -5.40315 
         -50      1.67329  0.000121474  2.05229e-06     -5.40313 
         -50      1.73049  0.000118172  1.98472e-06     -5.40311 
         -50      1.78865  0.000114885  1.87804e-06     -5.40309 
         -50      1.84778  0.000111593  1.77291e-06     -5.40307 
         -50      1.90786  0.000108302  1.70693e-06     -5.40305 
         -50      1.96891  0.000105041  1.71391e-06     -5.40303 
         -50      2.03092  0.000101858  1.82308e-06       -5.403 
         -50      2.09389  9.88152e-05  2.05848e-06     -5.40298 
         -50      2.15782  9.59856e-05  2.43814e-06     -5.40295 
         -50      2.22272  9.34449e-05  2.97371e-06     -5.40293 
         -50      2.28857  9.12668e-05  3.66978e-06      -5.4029 
         -50      2.35539  8.95166e-05  4.52371e-06     -5.40287 
         -50      2.42317  8.82446e-05  5.52541e-06     -5.40284 
         -50      2.49191  8.74808e-05  6.65709e-06     -5.40281 
         -50      2.56161  8.72286e-05  7.89394e-06     -5.40277 
         -50      2.63226  8.74614e-05  9.20444e-06     -5.40274 
         -50      2.70389  8.81193e-05  1.05514e-05      -5.4027 
         -50      2.77648  8.91081e-05  1.18925e-05     -5.40266 
         -50      2.85002   9.0301e-05  1.31834e-05     -5.40263 
         -50      2.92453  9.15435e-05  1.43785e-05     -5.40259 
         -50            3  9.26617e-05  1.54348e-05     -5.40254 
         -25            0  9.08661e-20  1.85113e-24     -5.19191 
         -25      0.00048  9.05693e-06  1.96523e-10     -5.19191 
         -25     0.001922  3.21189e-05  8.48494e-10     -5.19191 
         -25     0.004326  5.89613e-05  2.19518e-09     -5.19191 
         -25      0.00769  7.88064e-05  4.77696e-09     -5.19191 
         -25     0.012017  8.62167e-05  9.54026e-09     -5.19191 
         -25     0.017304  8.37627e-05  1.77964e-08     -5.19191 
         -25     0.023553  7.95793e-05  3.10199e-08     -5.19191 
         -25     0.030763  8.06129e-05  5.05071e-08     -5.19191 
         -25     0.038936  8.62062e-05  7.71406e-08     -5.19191 
         -25     0.048069  8.86517e-05  1.11477e-07     -5.19191 
         -25     0.058163  8.42738e-05  1.54412e-07     -5.19191 
         -25     0.069219  8.50068e-05  2.08015e-07     -5.19191 
         -25     0.081236  8.93533e-05  2.75115e-07     -5.19191 
         -25     0.094215  8.75822e-05  3.54986e-07     -5.19191 
         -25     0.108155  8.85439e-05  4.49045e-07     -5.19191 
         -25     0.123056  8.80028e-05   5.5832e-07     -5.19191 
         -25     0.138918  8.76311e-05    6.834e-07     -5.19191 
         -25     0.155744  8.77234e-05  8.24701e-07     -5.19191 
         -25     0.173529  8.77533e-05   9.8236e-07     -5.19191 
         -25     0.192276  8.72759e-05  1.15638e-06     -5.19191 
         -25     0.211984  8.66696e-05  1.34657e-06     -5.19191 
         -25     0.232655  8.67231e-05  1.55272e-06      -5.1919 
         -25     0.254285  8.61177e-05  1.77455e-06      -5.1919 
         -25     0.276877  8.59818e-05  2.01091e-06      -5.1919 
         -25     0.300431  8.57734e-05  2.26159e-06      -5.1919 
         -25     0.324946  8.55817e-05  2.52629e-06      -5.1919 
         -25     0.350424  8.54655e-05  2.80459e-06      -5.1919 
         -25     0.376861  8.54558e-05   3.0958e-06      -5.1919 
         -25      0.40426  8.55612e-05  3.39896e-06      -5.1919 
         -25     0.432621  8.57776e-05  3.71266e-06      -5.1919 
         -25     0.461945  8.60985e-05  4.03505e-06      -5.1919 
         -25     0.492228  8.65238e-05  4.36389e-06      -5.1919 
         -25     0.523472  8.70622e-05  4.69703e-06      -5.1919 
         -25     0.555678  8.77204e-05  5.03292e-06     -5.19189 
         -25     0.588845   8.8471e-05  5.37172e-06     -5.19189 
         -25     0.622976  8.92472e-05  5.72987e-06     -5.19189 
         -25     0.658066  9.00968e-05  6.10086e-06     -5.19189 
         -25     0.694117  9.09597e-05  6.46972e-06     -5.19189 
         -25      0.73113  9.17982e-05  6.84508e-06     -5.19188 
         -25     0.769107    9.258e-05  7.23081e-06     -5.19188 
         -25     0.808042  9.32788e-05  7.62631e-06     -5.19188 
         -25     0.847939   9.3875e-05  8.02759e-06     -5.19188 
         -25     0.888797  9.43554e-05  8.42814e-06     -5.19188 
         -25      0.93062  9.47131e-05   8.8203e-06     -5.19187 
         -25       0.9734  9.49471e-05  9.19656e-06     -5.19187 
         -25      1.01714  9.50615e-05  9.55124e-06     -5.19187 
         -25      1.06185  9.50641e-05  9.88156e-06     -5.19186 
         -25      1.10751  9.49658e-05  1.01887e-05     -5.19186 
         -25      1.15414  9.47791e-05  1.04779e-05     -5.19186 
         -25      1.20173  9.45169e-05  1.07578e-05     -5.19185 
         -25      1.25028  9.41915e-05  1.10384e-05     -5.19185 
         -25      1.29979  9.38143e-05  1.13267e-05     -5.19184 
         -25      1.35026  9.33958e-05  1.16205e-05     -5.19184 
         -25       1.4017   9.2947e-05  1.18982e-05     -5.19183 
         -25      1.45409  9.24818e-05  1.21048e-05     -5.19183 
         -25      1.50745  9.20112e-05  1.21383e-05     -5.19182 
         -25      1.56176  9.12703e-05  1.23181e-05     -5.19182 
         -25      1.61705  9.08396e-05  1.25386e-05     -5.19181 
         -25      1.67329  9.05038e-05  1.27509e-05      -5.1918 
         -25      1.73049  9.00938e-05  1.29196e-05      -5.1918 
         -25      1.78865   8.9487e-05  1.30228e-05     -5.19179 
         -25      1.84778   8.8606e-05  1.30512e-05     -5.19178 
         -25      1.90786  8.74172e-05  1.30079e-05     -5.19177 
         -25      1.96891  8.59265e-05  1.29061e-05     -5.19176 
         -25      2.03092  8.41755e-05  1.27685e-05     -5.19176 
         -25      2.09389  8.22356e-05  1.26249e-05     -5.19175 
         -25      2.15782  8.02021e-05  1.25099e-05     -5.19174 
         -25      2.22272  7.81853e-05  1.24606e-05     -5.19173 
         -25      2.28857  7.63036e-05  1.25141e-05     -5.19172 
         -25      2.35539  7.46737e-05  1.27043e-05     -5.19171 
         -25      2.42317  7.34024e-05  1.30594e-05      -5.1917 
         -25      2.49191  7.25769e-05  1.35987e-05     -5.19168 
         -25      2.56161  7.22566e-05  1.43307e-05     -5.19167 
         -25      2.63226  7.24653e-05  1.52502e-05     -5.19166 
         -25      2.70389  7.31851e-05  1.63374e-05     -5.19165 
         -25      2.77648  7.43521e-05  1.75556e-05     -5.19163 
         -25      2.85002  7.58552e-05  1.88527e-05     -5.19162 
         -25      2.92453  7.75386e-05  2.01614e-05      -5.1916 
         -25            3  7.92083e-05  2.14025e-05     -5.19159 
           0            0  3.07498e-19 -4.04028e-19     -5.01721 
           0      0.00048  4.04042e-05 -2.73128e-05     -5.01717 
           0     0.001922   0.00014047 -9.44395e-05     -5.01706 
           0     0.004326  0.000248151 -0.000165007     -5.01693 
           0      0.00769  0.000310236 -0.000202094     -5.01684 
           0     0.012017  0.000303421  -0.00019018     -5.01683 
           0     0.017304  0.000247678 -0.000144596     -5.01691 
           0     0.023553  0.000191368  -0.00010086     -5.01704 
           0     0.030763  0.000173365 -8.74928e-05     -5.01718 
           0     0.038936  0.000187813 -0.000100307     -5.01726 
           0     0.048069  0.000188434  -0.00010446     -5.01727 
           0     0.058163  0.000151743 -7.90861e-05     -5.01729 
           0     0.069219   0.00014323 -6.78591e-05      -5.0174 
           0     0.081236  0.000158159 -8.02695e-05     -5.01755 
           0     0.094215  0.000143227 -6.85396e-05     -5.01759 
           0     0.108155  0.000144631 -6.66074e-05     -5.01767 
           0     0.123056  0.000139321  -6.1291e-05     -5.01777 
           0     0.138918  0.000136501 -5.75678e-05     -5.01786 
           0     0.155744  0.000137636 -5.60522e-05     -5.01796 
           0     0.173529  0.000139552  -5.4792e-05     -5.01804 
           0     0.192276  0.000139461 -5.21557e-05     -5.01813 
           0     0.211984  0.000139088  -4.9229e-05     -5.01822 
           0     0.232655  0.000142362 -4.85899e-05     -5.01832 
           0     0.254285  0.000142546 -4.66887e-05     -5.01842 
           0     0.276877  0.000144489 -4.54354e-05     -5.01851 
           0     0.300431  0.000146028 -4.42897e-05     -5.01861 
           0     0.324946  0.000147345 -4.31637e-05      -5.0187 
           0     0.350424  0.000148615 -4.22021e-05      -5.0188 
           0     0.376861  0.000149688 -4.13338e-05     -5.01889 
           0      0.40426  0.000150575 -4.05852e-05     -5.01899 
           0     0.432621  0.000151275 -3.99249e-05     -5.01909 
           0     0.461945  0.000151746 -3.93503e-05     -5.01919 
           0     0.492228  0.000151985 -3.88557e-05     -5.01928 
           0     0.523472  0.000151979 -3.84325e-05     -5.01938 
           0     0.555678  0.000151712 -3.80807e-05     -5.01948 
           0     0.588845  0.000151178 -3.77914e-05     -5.01958 
           0     0.622976  0.000150373 -3.75626e-05     -5.01967 
           0     0.658066  0.000149295  -3.7389e-05     -5.01977 
           0     0.694117  0.000147953 -3.72672e-05     -5.01987 
           0      0.73113  0.000146363 -3.71927e-05     -5.01997 
           0     0.769107  0.000144551 -3.71601e-05     -5.02006 
           0     0.808042  0.000142543 -3.71653e-05     -5.02016 
           0     0.847939  0.000140371 -3.72036e-05     -5.02026 
           0     0.888797  0.000138077 -3.72712e-05     -5.02035 
           0      0.93062  0.000135681 -3.73549e-05     -5.02045 
           0       0.9734  0.000133224  -3.7458e-05     -5.02054 
           0      1.01714  0.000130724 -3.75776e-05     -5.02064 
           0      1.06185  0.000128189 -3.77057e-05     -5.02074 
           0      1.10751  0.000125619  -3.7835e-05     -5.02083 
           0      1.15414  0.000123006 -3.79618e-05     -5.02092 
           0      1.20173  0.000120343 -3.80886e-05     -5.02102 
           0      1.25028  0.000117623 -3.82182e-05     -5.02111 
           0      1.29979  0.000114828 -3.83297e-05     -5.02121 
           0      1.35026  0.000111951  -3.8443e-05      -5.0213 
           0       1.4017  0.000109004 -3.85237e-05     -5.02139 
           0      1.45409  0.000105988 -3.85879e-05     -5.02148 
           0      1.50745  0.000102898 -3.86489e-05     -5.02157 
           0      1.56176  9.97549e-05 -3.87031e-05     -5.02166 
           0      1.61705   9.6597e-05 -3.87158e-05     -5.02175 
           0      1.67329  9.34481e-05 -3.86789e-05     -5.02184 
           0      1.73049  9.03188e-05 -3.86205e-05     -5.02193 
           0      1.78865  8.72379e-05 -3.85743e-05     -5.02202 
           0      1.84778  8.43273e-05 -3.84951e-05     -5.02211 
           0      1.90786  8.16357e-05 -3.83375e-05     -5.02219 
           0      1.96891  7.91976e-05 -3.81597e-05     -5.02228 
           0      2.03092  7.71543e-05 -3.79035e-05     -5.02237 
           0      2.09389  7.54276e-05 -3.76514e-05     -5.02245 
           0      2.15782  7.40022e-05 -3.74116e-05     -5.02253 
           0      2.22272  7.28707e-05 -3.71661e-05     -5.02262 
           0      2.28857  7.19555e-05 -3.69042e-05      -5.0227 
           0      2.35539  7.11957e-05  -3.6615e-05     -5.02278 
           0      2.42317  7.05531e-05 -3.62966e-05     -5.02286 
           0      2.49191  7.00121e-05 -3.59503e-05     -5.02294 
           0      2.56161  6.95747e-05  -3.5571e-05     -5.02302 
           0      2.63226  6.92526e-05 -3.51311e-05      -5.0231 
           0      2.70389  6.90539e-05 -3.45588e-05     -5.02318 
           0      2.77648  6.89828e-05   -3.376e-05     -5.02325 
           0      2.85002  6.91095e-05 -3.27995e-05     -5.02333 
           0      2.92453  6.93565e-05 -3.15855e-05      -5.0234 
           0            3  6.97239e-05 -3.01441e-05     -5.02348 
          20            0           -0           -0     -4.91971 
          20      0.00048  6.63455e-06   3.7569e-10     -4.91971 
          20     0.001922  2.31533e-05  1.34611e-09     -4.91971 
          20     0.004326  4.11535e-05   2.5158e-09     -4.91971 
          20      0.00769  5.18211e-05  3.42169e-09     -4.91971 
          20     0.012017  5.07986e-05  3.62109e-09     -4.91971 
          20     0.017304  4.04102e-05   2.5054e-09     -4.91971 
          20     0.023553  2.76133e-05 -1.22615e-09     -4.91971 
          20     0.030763  1.84097e-05 -1.02861e-08     -4.91971 
          20     0.038936  1.25131e-05 -2.93049e-08     -4.91971 
          20     0.048069  3.80898e-06 -6.45353e-08     -4.91971 
          20     0.058163 -1.04871e-05 -1.22475e-07     -4.91971 
          20     0.069219  -2.0243e-05 -2.07982e-07     -4.91971 
          20     0.081236  -2.6483e-05 -3.24687e-07     -4.91971 
          20     0.094215 -3.70986e-05 -4.82996e-07     -4.91971 
          20     0.108155 -4.46162e-05 -6.89304e-07      -4.9197 
          20     0.123056  -5.2469e-05 -9.48779e-07      -4.9197 
          20     0.138918 -5.92408e-05 -1.26682e-06      -4.9197 
          20     0.155744 -6.46995e-05  -1.6482e-06      -4.9197 
          20     0.173529 -6.93304e-05 -2.09608e-06      -4.9197 
          20     0.192276 -7.35888e-05 -2.61174e-06      -4.9197 
          20     0.211984 -7.72688e-05 -3.19408e-06      -4.9197 
          20     0.232655  -7.9822e-05 -3.84105e-06      -4.9197 
          20     0.254285 -8.24192e-05 -4.55175e-06      -4.9197 
          20     0.276877 -8.42831e-05 -5.31765e-06      -4.9197 
          20     0.300431 -8.58664e-05 -6.13165e-06      -4.9197 
          20     0.324946 -8.71278e-05 -6.98398e-06      -4.9197 
          20     0.350424 -8.80303e-05 -7.86442e-06     -4.91969 
          20     0.376861 -8.85504e-05 -8.76415e-06     -4.91969 
          20      0.40426 -8.86688e-05 -9.67267e-06     -4.91969 
          20     0.432621 -8.83772e-05 -1.05827e-05     -4.91969 
          20     0.461945 -8.76874e-05 -1.14898e-05     -4.91969 
          20     0.492228 -8.66375e-05 -1.23929e-05     -4.91968 
          20     0.523472 -8.52957e-05 -1.32946e-05     -4.91968 
          20     0.555678 -8.37607e-05 -1.42013e-05     -4.91968 
          20     0.588845 -8.21549e-05 -1.51222e-05     -4.91968 
          20     0.622976 -8.06056e-05 -1.60683e-05     -4.91967 
          20     0.658066  -7.9213e-05 -1.70491e-05     -4.91967 
          20     0.694117 -7.79935e-05 -1.80687e-05     -4.91967 
          20      0.73113 -7.68389e-05 -1.91236e-05     -4.91966 
          20     0.769107 -7.56983e-05 -2.02083e-05     -4.91966 
          20     0.808042 -7.44172e-05 -2.13103e-05     -4.91965 
          20     0.847939 -7.28434e-05 -2.24166e-05     -4.91965 
          20     0.888797 -7.08471e-05 -2.35113e-05     -4.91964 
          20      0.93062 -6.83323e-05 -2.45796e-05     -4.91964 
          20       0.9734 -6.52477e-05 -2.56093e-05     -4.91963 
          20      1.01714 -6.15875e-05 -2.65875e-05     -4.91963 
          20      1.06185 -5.73707e-05  -2.7509e-05     -4.91962 
          20      1.10751 -5.26454e-05 -2.83685e-05     -4.91961 
          20      1.15414 -4.74783e-05 -2.91614e-05     -4.91961 
          20      1.20173 -4.19481e-05  -2.9887e-05      -4.9196 
          20      1.25028 -3.60969e-05 -3.05433e-05     -4.91959 
          20      1.29979 -2.99948e-05 -3.11294e-05     -4.91958 
          20      1.35026 -2.36931e-05 -3.16446e-05     -4.91957 
          20       1.4017 -1.72326e-05 -3.20876e-05     -4.91956 
          20      1.45409 -1.06511e-05 -3.24571e-05     -4.91955 
          20      1.50745 -3.98957e-06 -3.27514e-05     -4.91954 
          20      1.56176  2.71376e-06 -3.29689e-05     -4.91953 
          20      1.61705   9.4368e-06 -3.31089e-05     -4.91952 
          20      1.67329  1.61289e-05 -3.31747e-05     -4.91951 
          20      1.73049  2.27602e-05 -3.31574e-05     -4.91949 
          20      1.78865  2.92791e-05 -3.30696e-05     -4.91948 
          20      1.84778   3.5624e-05 -3.29142e-05     -4.91947 
          20      1.90786  4.17411e-05 -3.26828e-05     -4.91945 
          20      1.96891  4.75682e-05 -3.23811e-05     -4.91944 
          20      2.03092  5.30294e-05 -3.20202e-05     -4.91942 
          20      2.09389  5.80508e-05 -3.16104e-05     -4.91941 
          20      2.15782   6.2578e-05 -3.11588e-05     -4.91939 
          20      2.22272  6.65878e-05 -3.06628e-05     -4.91937 
          20      2.28857  7.00814e-05 -3.01132e-05     -4.91935 
          20      2.35539  7.30909e-05 -2.95004e-05     -4.91934 
          20      2.42317  7.56748e-05 -2.88286e-05     -4.91932 
          20      2.49191  7.79108e-05 -2.81244e-05      -4.9193 
          20      2.56161  7.98641e-05 -2.73332e-05     -4.91928 
          20      2.63226  8.15698e-05 -2.65276e-05     -4.91926 
          20      2.70389  8.30624e-05 -2.56984e-05     -4.91923 
          20      2.77648  8.43535e-05 -2.48568e-05     -4.91921 
          20      2.85002  8.54415e-05 -2.40432e-05     -4.91919 
          20      2.92453  8.63201e-05 -2.32725e-05     -4.91916 
          20            3   8.7005e-05  -2.2541e-05     -4.91914 
          40            0           -0           -0     -4.81009 
          40      0.00048  6.66004e-06  3.37282e-11     -4.81009 
          40     0.001922  2.36452e-05 -2.87099e-11     -4.81009 
          40     0.004326  4.35038e-05 -6.54278e-10     -4.81009 
          40      0.00769  5.83865e-05 -2.54674e-09     -4.81009 
          40     0.012017  6.43468e-05    -6.57e-09     -4.81009 
          40     0.017304  6.32848e-05 -1.36729e-08     -4.81009 
          40     0.023553  6.11616e-05 -2.48589e-08     -4.81009 
          40     0.030763  6.30663e-05 -4.11557e-08     -4.81009 
          40     0.038936  6.85317e-05 -6.35808e-08     -4.81009 
          40     0.048069  7.19354e-05 -9.29922e-08     -4.81009 
          40     0.058163  7.05886e-05 -1.29867e-07     -4.81009 
          40     0.069219  7.31868e-05 -1.74013e-07     -4.81009 
          40     0.081236  7.86087e-05 -2.24597e-07     -4.81009 
          40     0.094215  7.97151e-05 -2.81195e-07     -4.81009 
          40     0.108155  8.29216e-05 -3.42408e-07     -4.81009 
          40     0.123056   8.5088e-05 -4.06489e-07     -4.81009 
          40     0.138918  8.73848e-05 -4.71496e-07     -4.81009 
          40     0.155744  8.99794e-05 -5.35338e-07     -4.81009 
          40     0.173529  9.24438e-05 -5.95857e-07     -4.81009 
          40     0.192276  9.44178e-05  -6.5101e-07     -4.81009 
          40     0.211984  9.61507e-05 -6.98973e-07     -4.81009 
          40     0.232655  9.82009e-05 -7.38342e-07     -4.81009 
          40     0.254285  9.95972e-05 -7.68346e-07     -4.81009 
          40     0.276877  0.000101161  -7.8845e-07     -4.81009 
          40     0.300431  0.000102501  -7.9907e-07     -4.81008 
          40     0.324946  0.000103688 -8.01488e-07     -4.81008 
          40     0.350424   0.00010477 -7.97451e-07     -4.81008 
          40     0.376861   0.00010577 -7.89199e-07     -4.81008 
          40      0.40426  0.000106686 -7.79452e-07     -4.81008 
          40     0.432621  0.000107505 -7.71374e-07     -4.81008 
          40     0.461945  0.000108203 -7.68466e-07     -4.81008 
          40     0.492228  0.000108757 -7.74366e-07     -4.81008 
          40     0.523472  0.000109148 -7.92523e-07     -4.81008 
          40     0.555678  0.000109358 -8.25686e-07     -4.81008 
          40     0.588845  0.000109356 -8.75152e-07     -4.81008 
          40     0.622976   0.00010912 -9.38482e-07     -4.81008 
          40     0.658066  0.000108646 -1.02386e-06     -4.81008 
          40     0.694117  0.000107912 -1.13101e-06     -4.81008 
          40      0.73113  0.000106974 -1.25309e-06     -4.81008 
          40     0.769107   0.00010588 -1.38479e-06     -4.81008 
          40     0.808042  0.000104667 -1.52228e-06     -4.81008 
          40     0.847939  0.000103363 -1.66322e-06     -4.81008 
          40     0.888797  0.000101985 -1.80644e-06     -4.81008 
          40      0.93062  0.000100538  -1.9517e-06     -4.81008 
          40       0.9734  9.90225e-05 -2.09926e-06     -4.81008 
          40      1.01714  9.74284e-05 -2.24963e-06     -4.81008 
          40      1.06185  9.57434e-05 -2.40303e-06     -4.81008 
          40      1.10751   9.3953e-05 -2.55913e-06     -4.81007 
          40      1.15414  9.20449e-05 -2.71682e-06     -4.81007 
          40      1.20173  9.00122e-05 -2.87416e-06     -4.81007 
          40      1.25028  8.78562e-05 -3.02874e-06     -4.81007 
          40      1.29979  8.55904e-05 -3.17843e-06     -4.81007 
          40      1.35026  8.32416e-05  -3.3227e-06     -4.81007 
          40       1.4017  8.08524e-05 -3.46476e-06     -4.81007 
          40      1.45409  7.84788e-05 -3.61473e-06     -4.81007 
          40      1.50745  7.61781e-05 -3.79325e-06     -4.81007 
          40      1.56176  7.35828e-05 -3.93511e-06     -4.81006 
          40      1.61705  7.12211e-05 -4.04172e-06     -4.81006 
          40      1.67329   6.9038e-05 -4.12268e-06     -4.81006 
          40      1.73049  6.69861e-05 -4.18631e-06     -4.81006 
          40      1.78865  6.50257e-05 -4.23956e-06     -4.81006 
          40      1.84778  6.31255e-05  -4.2879e-06     -4.81006 
          40      1.90786  6.12629e-05 -4.33532e-06     -4.81005 
          40      1.96891  5.94231e-05 -4.38429e-06     -4.81005 
          40      2.03092  5.75998e-05 -4.43585e-06     -4.81005 
          40      2.09389  5.57935e-05 -4.48962e-06     -4.81005 
          40      2.15782  5.40127e-05 -4.54387e-06     -4.81005 
          40      2.22272  5.22709e-05 -4.59576e-06     -4.81004 
          40      2.28857  5.05871e-05 -4.64141e-06     -4.81004 
          40      2.35539  4.89836e-05 -4.67614e-06     -4.81004 
          40      2.42317  4.74853e-05 -4.69472e-06     -4.81004 
          40      2.49191  4.61181e-05 -4.69161e-06     -4.81003 
          40      2.56161  4.49067e-05 -4.66128e-06     -4.81003 
          40      2.63226  4.38737e-05  -4.5985e-06     -4.81003 
          40      2.70389  4.30372e-05 -4.49869e-06     -4.81003 
          40      2.77648  4.24102e-05  -4.3583e-06     -4.81002 
          40      2.85002  4.19981e-05 -4.17505e-06     -4.81002 
          40      2.92453   4.1798e-05 -3.94834e-06     -4.81002 
          40            3  4.17977e-05 -3.67954e-06     -4.81001 
          60            0           -0           -0     -4.70813 
          60      0.00048  7.07655e-06  6.02343e-11     -4.70813 
          60     0.001922  2.54091e-05   6.6349e-10     -4.70813 
          60     0.004326  4.77674e-05  3.10524e-09     -4.70813 
          60      0.00769  6.64803e-05  9.62311e-09     -4.70813 
          60     0.012017  7.75702e-05  2.35086e-08     -4.70813 
          60     0.017304  8.26073e-05  4.91771e-08     -4.70813 
          60     0.023553  8.70219e-05  9.22661e-08     -4.70813 
          60     0.030763   9.5379e-05  1.59626e-07     -4.70813 
          60     0.038936  0.000106908  2.59347e-07     -4.70813 
          60     0.048069  0.000115896  4.00625e-07     -4.70813 
          60     0.058163  0.000119454  5.93806e-07     -4.70813 
          60     0.069219  0.000125633  8.50244e-07     -4.70813 
          60     0.081236  0.000133113  1.18192e-06     -4.70813 
          60     0.094215  0.000134864  1.60052e-06     -4.70813 
          60     0.108155  0.000136906  2.11762e-06     -4.70813 
          60     0.123056  0.000136169  2.74422e-06     -4.70813 
          60     0.138918  0.000133784  3.48995e-06     -4.70813 
          60     0.155744  0.000129989   4.3629e-06     -4.70813 
          60     0.173529  0.000124516  5.36883e-06     -4.70813 
          60     0.192276  0.000117213  6.51184e-06     -4.70813 
          60     0.211984  0.000108558  7.79366e-06     -4.70813 
          60     0.232655  9.93535e-05   9.2138e-06     -4.70813 
          60     0.254285  8.89567e-05  1.07683e-05     -4.70813 
          60     0.276877  7.84478e-05  1.24546e-05     -4.70813 
          60     0.300431  6.77387e-05  1.42661e-05     -4.70813 
          60     0.324946  5.71681e-05  1.61939e-05     -4.70813 
          60     0.350424  4.70329e-05  1.82298e-05     -4.70813 
          60     0.376861  3.75845e-05  2.03652e-05     -4.70813 
          60      0.40426  2.90204e-05  2.25923e-05     -4.70813 
          60     0.432621  2.14902e-05  2.49022e-05     -4.70813 
          60     0.461945  1.50999e-05  2.72856e-05     -4.70813 
          60     0.492228  9.91878e-06  2.97317e-05     -4.70813 
          60     0.523472  5.98061e-06  3.22294e-05     -4.70813 
          60     0.555678  3.27909e-06   3.4769e-05     -4.70813 
          60     0.588845  1.74311e-06  3.73447e-05     -4.70813 
          60     0.622976  1.19413e-06  3.99532e-05     -4.70813 
          60     0.658066  1.60955e-06  4.25591e-05     -4.70813 
          60     0.694117  2.79797e-06  4.51547e-05     -4.70813 
          60      0.73113  4.49226e-06  4.77341e-05     -4.70813 
          60     0.769107   6.4551e-06  5.02887e-05     -4.70813 
          60     0.808042  8.48406e-06  5.28076e-05     -4.70813 
          60     0.847939  1.04167e-05  5.52795e-05     -4.70813 
          60     0.888797  1.21323e-05   5.7692e-05     -4.70813 
          60      0.93062  1.35528e-05  6.00341e-05     -4.70813 
          60       0.9734  1.46412e-05  6.22954e-05     -4.70813 
          60      1.01714  1.53986e-05  6.44693e-05     -4.70813 
          60      1.06185  1.58587e-05  6.65521e-05     -4.70813 
          60      1.10751  1.60811e-05  6.85438e-05     -4.70813 
          60      1.15414  1.61419e-05  7.04486e-05     -4.70813 
          60      1.20173  1.61247e-05  7.22725e-05     -4.70813 
          60      1.25028  1.61103e-05  7.40226e-05     -4.70813 
          60      1.29979  1.61661e-05  7.57028e-05     -4.70813 