Variables = x, y, u, v, p

Zone, I=416, F=POINT
         -50            0            0            0     -28.9888 
         -50     0.013333 -6.87162e-05 -1.46595e-10     -28.9888 
         -50     0.053333 -5.06311e-05  9.68285e-08     -28.9888 
         -50         0.12 -4.34788e-05  5.53951e-07     -28.9888 
         -50     0.213332  -4.1057e-05   1.6452e-06     -28.9888 
         -50     0.333332 -4.08298e-05  3.11263e-06     -28.9888 
         -50         0.48 -3.84827e-05  5.17216e-06     -28.9888 
         -50     0.653331 -3.34754e-05  7.27356e-06     -28.9887 
         -50     0.853332 -2.93599e-05  9.52562e-06     -28.9887 
         -50         1.08 -3.11478e-05  1.19998e-05     -28.9886 
         -50      1.33333 -3.89658e-05  1.36034e-05     -28.9885 
         -50      1.61333 -4.97971e-05  1.40638e-05     -28.9883 
         -50         1.92 -5.53131e-05  1.43495e-05     -28.9881 
         -50      2.25333   -5.247e-05  1.46434e-05     -28.9879 
         -50      2.61333 -5.06896e-05   1.2768e-05     -28.9876 
         -50            3 -5.58953e-05   7.3663e-06     -28.9872 
         -25            0           -0           -0     -28.1694 
         -25     0.013333 -6.01972e-05   -4.457e-09     -28.1694 
         -25     0.053333 -4.66368e-05 -2.91533e-08     -28.1694 
         -25         0.12 -3.96939e-05 -6.98656e-08     -28.1694 
         -25     0.213332 -3.53733e-05  -3.6473e-08     -28.1694 
         -25     0.333332 -3.54115e-05  2.49579e-07     -28.1694 
         -25         0.48 -3.69788e-05  7.98236e-07     -28.1694 
         -25     0.653331 -3.77253e-05   1.5252e-06     -28.1694 
         -25     0.853332  -3.7963e-05  2.55907e-06     -28.1694 
         -25         1.08 -3.99978e-05  3.64232e-06     -28.1694 
         -25      1.33333 -4.45909e-05  4.64822e-06     -28.1693 
         -25      1.61333 -5.00438e-05  5.54121e-06     -28.1693 
         -25         1.92 -5.48307e-05  5.89885e-06     -28.1693 
         -25      2.25333 -5.38023e-05  6.85816e-06     -28.1692 
         -25      2.61333 -4.88134e-05  8.69254e-06     -28.1691 
         -25            3 -4.70512e-05  9.63774e-06      -28.169 
           0            0            0            0     -27.3818 
           0     0.013333 -0.000172978  0.000117846     -27.3832 
           0     0.053333 -0.000110187  5.73347e-05     -27.3849 
           0         0.12 -8.71359e-05   4.3803e-05     -27.3868 
           0     0.213332 -6.99659e-05  3.40344e-05     -27.3888 
           0     0.333332 -5.70644e-05  2.81327e-05     -27.3909 
           0         0.48 -4.74394e-05  2.40411e-05      -27.393 
           0     0.653331 -4.07824e-05  2.11256e-05     -27.3951 
           0     0.853332 -3.75138e-05  1.89459e-05     -27.3972 
           0         1.08 -3.87726e-05   1.7219e-05     -27.3992 
           0      1.33333 -4.35213e-05  1.56666e-05     -27.4012 
           0      1.61333 -5.05762e-05  1.42946e-05     -27.4031 
           0         1.92 -5.98469e-05  1.30866e-05      -27.405 
           0      2.25333 -6.96654e-05  1.22244e-05     -27.4068 
           0      2.61333 -7.33366e-05  1.18999e-05     -27.4086 
           0            3 -7.09581e-05  1.04382e-05     -27.4102 
          20            0 -0.000226516  0.000184735     -26.8846 
          20     0.013333 -0.000234179   0.00018545     -26.8846 
          20     0.053333 -0.000258498  0.000187481     -26.8846 
          20         0.12 -0.000303332  0.000190487     -26.8846 
          20     0.213332 -0.000373809   0.00019398     -26.8846 
          20     0.333332 -0.000471084  0.000197378     -26.8846 
          20         0.48   -0.0005751  0.000200961     -26.8846 
          20     0.653331 -0.000637731  0.000206453     -26.8845 
          20     0.853332 -0.000624649  0.000213333     -26.8845 
          20         1.08 -0.000541924  0.000220229     -26.8845 
          20      1.33333 -0.000425431  0.000224057     -26.8845 
          20      1.61333 -0.000300654  0.000222141     -26.8844 
          20         1.92 -0.000179803  0.000213846     -26.8844 
          20      2.25333 -7.88743e-05  0.000199575     -26.8843 
          20      2.61333 -1.72396e-05  0.000179967     -26.8843 
          20            3  9.21944e-06   0.00015823     -26.8842 
          40            0            0            0      -26.351 
          40     0.013333  0.000379124  2.15017e-08      -26.351 
          40     0.053333   0.00137192  2.84954e-06      -26.351 
          40         0.12   0.00216832  2.62307e-05      -26.351 
          40     0.213332   0.00243508  0.000102577      -26.351 
          40     0.333332   0.00238261  0.000241448      -26.351 
          40         0.48   0.00188703  0.000396816     -26.3509 
          40     0.653331   0.00108897  0.000549878     -26.3509 
          40     0.853332  0.000734516  0.000750355     -26.3508 
          40         1.08  0.000582357  0.000972972     -26.3507 
          40      1.33333   0.00027051   0.00115692     -26.3505 
          40      1.61333 -0.000108249   0.00127425     -26.3503 
          40         1.92 -0.000438986   0.00131595     -26.3501 
          40      2.25333 -0.000659779   0.00128432     -26.3498 
          40      2.61333 -0.000740356   0.00119584     -26.3495 
          40            3 -0.000710467   0.00107269      -26.349 
          60            0            0            0     -25.7781 
          60     0.013333  -6.6366e-05  4.80288e-07     -25.7781 
          60     0.053333 -0.000162173  6.46212e-06     -25.7781 
          60         0.12 -0.000385345  2.42673e-05     -25.7781 
          60     0.213332 -0.000545508  5.09123e-05     -25.7781 
          60     0.333332 -0.000526539  7.78787e-05     -25.7781 
          60         0.48 -0.000439307  0.000105861     -25.7781 
          60     0.653331 -0.000313585  0.000151812     -25.7781 
          60     0.853332 -1.73675e-05  0.000234525     -25.7781 
          60         1.08  0.000303195  0.000340206     -25.7781 
          60      1.33333  0.000461019  0.000437902     -25.7781 
          60      1.61333  0.000461979  0.000507172     -25.7781 
          60         1.92  0.000385977  0.000539776     -25.7781 
          60      2.25333  0.000286988   0.00053683      -25.778 
          60      2.61333  0.000187637  0.000504385      -25.778 
          60            3  0.000102096  0.000454023     -25.7779 
          80            0           -0           -0     -25.2209 
          80     0.013333 -0.000339383  1.23932e-08     -25.2209 
          80     0.053333  -0.00101894 -6.71115e-07     -25.2209 
          80         0.12  -0.00168629 -8.13882e-06     -25.2209 
          80     0.213332  -0.00195086 -3.53779e-05     -25.2209 
          80     0.333332  -0.00181776 -9.26632e-05     -25.2209 
          80         0.48  -0.00159625 -0.000180057     -25.2209 
          80     0.653331  -0.00156385 -0.000291117     -25.2209 
          80     0.853332  -0.00173708 -0.000412487     -25.2209 
          80         1.08  -0.00171842 -0.000515667     -25.2209 
          80      1.33333  -0.00126838 -0.000577875     -25.2209 
          80      1.61333 -0.000766729 -0.000614171     -25.2209 
          80         1.92 -0.000315315 -0.000631004     -25.2209 
          80      2.25333  7.02343e-05 -0.000622379     -25.2208 
          80      2.61333   0.00033985 -0.000593025     -25.2208 
          80            3  0.000467173 -0.000547901     -25.2207 
         100            0            0            0     -24.6675 
         100     0.013333 -0.000319731   9.8615e-08     -24.6675 
         100     0.053333 -0.000973686  6.48112e-07     -24.6675 
         100         0.12  -0.00167564 -2.17873e-06     -24.6675 
         100     0.213332  -0.00205816 -1.99571e-05     -24.6675 
         100     0.333332  -0.00208186 -6.34897e-05     -24.6675 
         100         0.48  -0.00198231 -0.000131721     -24.6675 
         100     0.653331  -0.00186983 -0.000210023     -24.6675 
         100     0.853332  -0.00155852 -0.000276757     -24.6675 
         100         1.08  -0.00106554 -0.000326863     -24.6675 
         100      1.33333 -0.000697592  -0.00036807     -24.6675 
         100      1.61333 -0.000393434 -0.000396422     -24.6674 
         100         1.92 -8.42923e-05 -0.000407029     -24.6674 
         100      2.25333  0.000181221 -0.000397855     -24.6674 
         100      2.61333  0.000360094  -0.00037378     -24.6673 
         100            3  0.000437818 -0.000338483     -24.6673 
         150            0  5.16886e-20 -7.36554e-26     -23.2896 
         150     0.013333  0.000246957 -1.13939e-07     -23.2896 
         150     0.053333   0.00103499 -9.29409e-07     -23.2896 
         150         0.12   0.00192737  4.67255e-07     -23.2896 
         150     0.213332   0.00253554  1.38784e-05     -23.2896 
         150     0.333332   0.00275361  4.90825e-05     -23.2896 
         150         0.48   0.00277412  0.000107912     -23.2896 
         150     0.653331   0.00278228  0.000183675     -23.2896 
         150     0.853332   0.00270029  0.000260128     -23.2896 
         150         1.08   0.00230427  0.000318335     -23.2896 
         150      1.33333    0.0016871  0.000353198     -23.2896 
         150      1.61333   0.00109195  0.000373824     -23.2896 
         150         1.92  0.000530315  0.000381675     -23.2896 
         150      2.25333  4.75471e-06  0.000372694     -23.2897 
         150      2.61333 -0.000427302  0.000349812     -23.2897 
         150            3 -0.000700738  0.000315697     -23.2898 
         200            0           -0           -0     -21.9205 
         200     0.013333  7.76605e-05  5.32245e-07     -21.9205 
         200     0.053333  0.000270182  8.29439e-06     -21.9205 
         200         0.12  0.000103105  3.89308e-05     -21.9205 
         200     0.213332 -0.000513999  0.000106539     -21.9205 
         200     0.333332   -0.0012316  0.000210801     -21.9205 
         200         0.48  -0.00165143  0.000338815     -21.9205 
         200     0.653331  -0.00166426  0.000477714     -21.9205 
         200     0.853332  -0.00142191   0.00061695     -21.9205 
         200         1.08  -0.00117286  0.000743435     -21.9205 
         200      1.33333 -0.000987575  0.000848226     -21.9205 
         200      1.61333 -0.000781022  0.000928348     -21.9205 
         200         1.92 -0.000540711  0.000978118     -21.9204 
         200      2.25333 -0.000285803  0.000991491     -21.9204 
         200      2.61333 -5.47651e-05  0.000967348     -21.9204 
         200            3  0.000115381  0.000910105     -21.9204 
         250            0            0            0     -20.5587 
         250     0.013333 -0.000447152  2.21057e-07     -20.5587 
         250     0.053333  -0.00145126   2.2124e-06     -20.5587 
         250         0.12  -0.00258926  3.06268e-06     -20.5587 
         250     0.213332  -0.00326951 -1.15732e-05     -20.5587 
         250     0.333332   -0.0033177 -5.77952e-05     -20.5587 
         250         0.48  -0.00305532 -0.000138013     -20.5587 
         250     0.653331  -0.00282726 -0.000239377     -20.5587 
         250     0.853332  -0.00261163 -0.000340108     -20.5587 
         250         1.08  -0.00216497 -0.000420001     -20.5587 
         250      1.33333  -0.00154319 -0.000475326     -20.5587 
         250      1.61333 -0.000997151 -0.000516865     -20.5586 
         250         1.92 -0.000497029 -0.000545304     -20.5586 
         250      2.25333 -2.47878e-05 -0.000554522     -20.5585 
         250      2.61333  0.000375636 -0.000544699     -20.5585 
         250            3  0.000649901 -0.000517045     -20.5584 
         300            0            0            0     -19.2041 
         300     0.013333 -0.000529249  5.34683e-09     -19.2041 
         300     0.053333  -0.00171331  -7.7841e-07     -19.2041 
         300         0.12  -0.00301748 -8.96817e-06     -19.2041 
         300     0.213332  -0.00380423 -4.00889e-05     -19.2041 
         300     0.333332  -0.00389197 -0.000109578     -19.2041 
         300         0.48  -0.00359517 -0.000221109     -19.2041 
         300     0.653331  -0.00330789 -0.000366231     -19.2041 
         300     0.853332  -0.00314177 -0.000529557     -19.2041 
         300         1.08  -0.00290452 -0.000691777     -19.2041 
         300      1.33333  -0.00242441 -0.000835467     -19.2041 
         300      1.61333    -0.001811 -0.000954592     -19.2041 
         300         1.92  -0.00118534  -0.00104641      -19.204 
         300      2.25333 -0.000561967  -0.00110209      -19.204 
         300      2.61333  1.41857e-05  -0.00111754     -19.2039 
         300            3  0.000472528  -0.00109263     -19.2039 
         350            0           -0           -0     -17.8564 
         350     0.013333  6.21724e-06  7.44557e-07     -17.8564 
         350     0.053333 -3.97379e-05  1.11584e-05     -17.8564 
         350         0.12 -0.000619274  5.01352e-05     -17.8564 
         350     0.213332  -0.00175057  0.000132652     -17.8564 
         350     0.333332  -0.00297608  0.000257425     -17.8564 
         350         0.48  -0.00381786  0.000410295     -17.8564 
         350     0.653331  -0.00412648  0.000578532     -17.8564 
         350     0.853332  -0.00397192  0.000757782     -17.8564 
         350         1.08  -0.00348619  0.000944969     -17.8564 
         350      1.33333  -0.00286664   0.00112973     -17.8564 
         350      1.61333  -0.00226067   0.00129635     -17.8564 
         350         1.92  -0.00164102    0.0014316     -17.8564 
         350      2.25333 -0.000988187   0.00152452     -17.8563 
         350      2.61333  -0.00034995   0.00156636     -17.8563 
         350            3  0.000194069   0.00155431     -17.8563 
         400            0            0            0     -16.5145 
         400     0.013333  0.000214701  2.22308e-08     -16.5145 
         400     0.053333  0.000897912  8.44339e-07     -16.5145 
         400         0.12   0.00162695  6.94716e-06     -16.5145 
         400     0.213332   0.00206439   2.7364e-05     -16.5145 
         400     0.333332   0.00214485  6.94702e-05     -16.5145 
         400         0.48   0.00207164  0.000133045     -16.5145 
         400     0.653331   0.00205438  0.000212006     -16.5145 
         400     0.853332   0.00211729  0.000297443     -16.5145 
         400         1.08   0.00208106  0.000376644     -16.5145 
         400      1.33333   0.00178752  0.000437746     -16.5145 
         400      1.61333   0.00135626  0.000480062     -16.5145 
         400         1.92  0.000940977  0.000508151     -16.5145 
         400      2.25333  0.000528781   0.00052017     -16.5145 
         400      2.61333  0.000125937   0.00051461     -16.5145 
         400            3 -0.000222959  0.000491513     -16.5146 
         450            0           -0           -0     -15.1814 
         450     0.013333  0.000113749  9.20438e-08     -15.1814 
         450     0.053333  0.000521381  1.71886e-06     -15.1814 
         450         0.12  0.000890424  9.83404e-06     -15.1814 
         450     0.213332   0.00101016   3.2058e-05     -15.1814 
         450     0.333332  0.000897746   7.3101e-05     -15.1814 
         450         0.48  0.000751271  0.000130863     -15.1814 
         450     0.653331  0.000727972  0.000199197     -15.1814 
         450     0.853332  0.000821564  0.000271112     -15.1814 
         450         1.08  0.000878214  0.000337764     -15.1814 
         450      1.33333  0.000767413  0.000391254     -15.1814 
         450      1.61333  0.000567071  0.000431483     -15.1814 
         450         1.92  0.000388624  0.000461503     -15.1814 
         450      2.25333  0.000218772  0.000479408     -15.1814 
         450      2.61333   5.0832e-05  0.000483053     -15.1814 
         450            3 -9.72813e-05  0.000471539     -15.1814 
         500            0           -0           -0     -13.8542 
         500     0.013333  0.000536705 -3.40996e-07     -13.8542 
         500     0.053333   0.00214464 -4.12802e-06     -13.8542 
         500         0.12   0.00416078 -1.19977e-05     -13.8542 
         500     0.213332   0.00572718 -1.09239e-05     -13.8542 
         500     0.333332   0.00629224  2.17638e-05     -13.8542 
         500         0.48   0.00602237  0.000100188     -13.8542 
         500     0.653331   0.00546544   0.00021923     -13.8542 
         500     0.853332   0.00494132  0.000359907     -13.8542 
         500         1.08   0.00436643  0.000500344     -13.8542 
         500      1.33333   0.00361556  0.000627872     -13.8542 
         500      1.61333   0.00280435  0.000743198     -13.8543 
         500         1.92   0.00201491  0.000847622     -13.8543 
         500      2.25333   0.00120492  0.000933648     -13.8543 
         500      2.61333  0.000390412  0.000993933     -13.8544 
         500            3 -0.000350998    0.0010236     -13.8545 
         550            0           -0           -0     -12.5401 
         550     0.013333 -0.000895628  -2.6126e-07     -12.5401 
         550     0.053333  -0.00296567 -5.03205e-06     -12.5401 
         550         0.12  -0.00516822 -3.00038e-05     -12.5401 
         550     0.213332  -0.00640175 -0.000102732     -12.5401 
         550     0.333332  -0.00637157 -0.000247552     -12.5401 
         550         0.48  -0.00564555 -0.000469049     -12.5401 
         550     0.653331  -0.00497798 -0.000753383     -12.5401 
         550     0.853332  -0.00471341  -0.00107975     -12.5401 
         550         1.08     -0.00466   -0.0014228     -12.5401 
         550      1.33333  -0.00435782  -0.00175277     -12.5401 
         550      1.61333  -0.00365201  -0.00204763       -12.54 
         550         1.92  -0.00281354  -0.00230006       -12.54 
         550      2.25333  -0.00194234  -0.00249915       -12.54 
         550      2.61333  -0.00105939  -0.00262993     -12.5399 
         550            3 -0.000213256  -0.00268033     -12.5399 
         600            0           -0           -0     -11.2295 
         600     0.013333  0.000351466  3.76026e-07     -11.2295 
         600     0.053333   0.00129986  6.08492e-06     -11.2295 
         600         0.12   0.00213907  3.03057e-05     -11.2295 
         600     0.213332     0.002383  8.95366e-05     -11.2295 
         600     0.333332   0.00205375   0.00019311     -11.2295 
         600         0.48   0.00155065  0.000338036     -11.2295 
         600     0.653331   0.00123828   0.00051511     -11.2295 
         600     0.853332   0.00124717  0.000716278     -11.2295 
         600         1.08   0.00147387  0.000932263     -11.2295 
         600      1.33333   0.00162061   0.00114619     -11.2295 
         600      1.61333   0.00147468   0.00133909     -11.2295 
         600         1.92   0.00117684   0.00150267     -11.2295 
         600      2.25333  0.000855327   0.00163126     -11.2295 
         600      2.61333  0.000533516    0.0017167     -11.2296 
         600            3  0.000209109    0.0017512     -11.2296 
         650            0           -0           -0     -9.92682 
         650     0.013333 -6.22437e-05 -2.28704e-07     -9.92682 
         650     0.053333 -1.09618e-05 -3.35771e-06     -9.92682 
         650         0.12  0.000179311 -1.46083e-05     -9.92682 
         650     0.213332  0.000483484 -3.70754e-05     -9.92682 
         650     0.333332  0.000746077 -6.86238e-05     -9.92682 
         650         0.48  0.000852872 -0.000104432     -9.92682 
         650     0.653331  0.000810996 -0.000142197     -9.92682 
         650     0.853332  0.000664987  -0.00018383     -9.92682 
         650         1.08  0.000429592 -0.000232133     -9.92682 
         650      1.33333  0.000165622 -0.000284966     -9.92682 
         650      1.61333 -4.60849e-06 -0.000334537     -9.92682 
         650         1.92 -7.47407e-05 -0.000374968     -9.92683 
         650      2.25333 -0.000123895 -0.000405699     -9.92683 
         650      2.61333 -0.000176896 -0.000425281     -9.92684 
         650            3 -0.000219154 -0.000431928     -9.92685 
         700            0           -0           -0     -8.62939 
         700     0.013333 -0.000280299  3.53378e-07     -8.62939 
         700     0.053333 -0.000965576  5.03101e-06     -8.62939 
         700         0.12  -0.00206006  2.08373e-05     -8.62939 
         700     0.213332  -0.00325348  4.93849e-05     -8.62939 
         700     0.333332  -0.00413554  8.32414e-05     -8.62939 
         700         0.48  -0.00450509  0.000111489     -8.62939 
         700     0.653331  -0.00446838  0.000128537     -8.62939 
         700     0.853332  -0.00422397  0.000136921     -8.62939 
         700         1.08  -0.00385707   0.00014348     -8.62939 
         700      1.33333  -0.00337491  0.000152655     -8.62939 
         700      1.61333  -0.00283295  0.000163056     -8.62938 
         700         1.92  -0.00229263  0.000170462     -8.62937 
         700      2.25333  -0.00172539  0.000173581     -8.62935 
         700      2.61333  -0.00112108  0.000172373     -8.62932 
         700            3 -0.000512968  0.000166693     -8.62927 
         750            0           -0           -0     -7.33244 
         750     0.013333 -0.000123004  -4.9869e-07     -7.33244 
         750     0.053333 -0.000140125 -7.47294e-06     -7.33244 
         750         0.12  0.000203319 -3.36853e-05     -7.33244 
         750     0.213332  0.000991661 -8.98773e-05     -7.33244 
         750     0.333332   0.00193867 -0.000176693     -7.33244 
         750         0.48   0.00267851   -0.0002859     -7.33244 
         750     0.653331   0.00304847 -0.000409308     -7.33244 
         750     0.853332   0.00306118 -0.000545019     -7.33244 
         750         1.08   0.00276046 -0.000694953     -7.33244 
         750      1.33333   0.00225855 -0.000855905     -7.33244 
         750      1.61333   0.00176916  -0.00101594     -7.33244 
         750         1.92    0.0013928  -0.00116243     -7.33245 
         750      2.25333   0.00103651  -0.00128824     -7.33246 
         750      2.61333  0.000653539  -0.00138643     -7.33248 
         750            3  0.000265386  -0.00144991     -7.33251 
         800            0            0            0     -6.04167 
         800     0.013333   -7.829e-05  1.06745e-07     -6.04167 
         800     0.053333 -0.000150868  1.47974e-06     -6.04167 
         800         0.12 -0.000279604  5.80699e-06     -6.04167 
         800     0.213332 -0.000380648  1.25529e-05     -6.04167 
         800     0.333332 -0.000364772  1.83889e-05     -6.04167 
         800         0.48 -0.000233753  2.04291e-05     -6.04167 
         800     0.653331 -7.12867e-05  1.96522e-05     -6.04167 
         800     0.853332  7.58371e-05  2.07376e-05     -6.04167 
         800         1.08   0.00024703  2.89121e-05     -6.04167 
         800      1.33333  0.000451976  4.46685e-05     -6.04167 
         800      1.61333  0.000579263  6.14969e-05     -6.04167 
         800         1.92  0.000566569  7.32971e-05     -6.04166 
         800      2.25333  0.000502606  8.02152e-05     -6.04166 
         800      2.61333  0.000431667  8.34421e-05     -6.04165 
         800            3  0.000347573  8.33093e-05     -6.04164 
         850            0           -0           -0     -4.75326 
         850     0.013333  0.000266895 -2.27345e-07     -4.75326 
         850     0.053333   0.00118072  -3.0132e-06     -4.75326 
         850         0.12   0.00242691 -1.08818e-05     -4.75326 
         850     0.213332   0.00357287 -2.01084e-05     -4.75326 
         850     0.333332   0.00422901 -2.02497e-05     -4.75326 
         850         0.48   0.00434162 -1.84989e-06     -4.75326 
         850     0.653331    0.0041546  3.62276e-05     -4.75326 
         850     0.853332   0.00390779  8.67528e-05     -4.75326 
         850         1.08   0.00362405  0.000138312     -4.75326 
         850      1.33333   0.00319796  0.000181716     -4.75326 
         850      1.61333   0.00265086  0.000216149     -4.75326 
         850         1.92   0.00213012  0.000247279     -4.75327 
         850      2.25333   0.00162307  0.000276846     -4.75329 
         850      2.61333    0.0010917  0.000302394     -4.75332 
         850            3   0.00054085  0.000321141     -4.75335 
         900            0 -7.42371e-20 -4.06599e-26     -3.47297 
         900     0.013333 -0.000119793  4.47266e-07     -3.47297 
         900     0.053333  -0.00042269  6.60744e-06     -3.47297 
         900         0.12  -0.00115233  2.91323e-05     -3.47297 
         900     0.213332  -0.00222215  7.55487e-05     -3.47297 
         900     0.333332  -0.00326727  0.000143543     -3.47297 
         900         0.48  -0.00394405  0.000223364     -3.47297 
         900     0.653331  -0.00418079   0.00030667     -3.47297 
         900     0.853332  -0.00409176  0.000392283     -3.47297 
         900         1.08  -0.00376433  0.000484645     -3.47297 
         900      1.33333  -0.00324118  0.000586444     -3.47297 
         900      1.61333  -0.00265119  0.000692292     -3.47297 
         900         1.92  -0.00215476  0.000791346     -3.47296 
         900      2.25333  -0.00169616  0.000876964     -3.47294 
         900      2.61333  -0.00121215  0.000945426     -3.47292 
         900            3 -0.000702753  0.000993049     -3.47288 
         950            0            0            0      -2.1935 
         950     0.013333 -0.000435811 -1.80642e-07      -2.1935 
         950     0.053333     -0.00136 -3.11089e-06      -2.1935 
         950         0.12  -0.00232313 -1.67659e-05      -2.1935 
         950     0.213332  -0.00280879 -5.37642e-05      -2.1935 
         950     0.333332   -0.0026678 -0.000125052      -2.1935 
         950         0.48  -0.00216361 -0.000232906     -2.19351 
         950     0.653331  -0.00168514 -0.000370918     -2.19351 
         950     0.853332  -0.00145318 -0.000529737     -2.19351 
         950         1.08  -0.00145031 -0.000700385     -2.19351 
         950      1.33333  -0.00149758 -0.000873199     -2.19351 
         950      1.61333  -0.00141798  -0.00103808      -2.1935 
         950         1.92  -0.00119883  -0.00118835      -2.1935 
         950      2.25333 -0.000942109  -0.00132113     -2.19349 
         950      2.61333  -0.00068741  -0.00143063     -2.19348 
         950            3  -0.00042552  -0.00150967     -2.19346 
        1000            0            0            0    -0.915925 
        1000     0.013333  0.000226987 -3.49061e-07    -0.915925 
        1000     0.053333   0.00107189 -4.81588e-06    -0.915925 
        1000         0.12   0.00232767 -1.93553e-05    -0.915925 
        1000     0.213332   0.00362319 -4.40148e-05    -0.915925 
        1000     0.333332   0.00452108 -6.99686e-05    -0.915924 
        1000         0.48   0.00485661 -8.61902e-05    -0.915923 
        1000     0.653331    0.0047978 -8.86402e-05    -0.915921 
        1000     0.853332   0.00458005 -8.29932e-05    -0.915919 
        1000         1.08   0.00425673 -8.02105e-05    -0.915917 
        1000      1.33333   0.00375039 -8.89704e-05    -0.915917 
        1000      1.61333   0.00310024 -0.000109023     -0.91592 
        1000         1.92   0.00249272 -0.000131874    -0.915929 
        1000      2.25333   0.00193861  -0.00015173    -0.915946 
        1000      2.61333   0.00138105 -0.000167865    -0.915972 
        1000            3  0.000794393 -0.000180776     -0.91601 
