Variables = x, y, u, v, p

Zone, I=800, F=POINT
         450            0  1.73201e-18 -6.08743e-29 -4.71244e-05 
         450     0.000234  8.76127e-05  6.55341e-12 -4.71243e-05 
         450     0.000939  0.000351574  1.05565e-10 -4.71242e-05 
         450     0.002113  0.000791136   5.3458e-10 -4.71239e-05 
         450     0.003759   0.00140742  1.69186e-09 -4.71235e-05 
         450     0.005872   0.00219856  4.12852e-09  -4.7123e-05 
         450     0.008457   0.00316642  8.56359e-09 -4.71224e-05 
         450      0.01151    0.0043095  1.58626e-08 -4.71216e-05 
         450     0.015036   0.00562969    2.707e-08 -4.71208e-05 
         450     0.019031   0.00712547  4.33658e-08 -4.71198e-05 
         450     0.023493   0.00879611  6.60848e-08 -4.71188e-05 
         450     0.028429    0.0106442  9.67718e-08 -4.71176e-05 
         450     0.033831    0.0126668  1.37043e-07 -4.71163e-05 
         450     0.039706    0.0148665  1.88773e-07 -4.71149e-05 
         450     0.046047    0.0172407  2.53882e-07 -4.71134e-05 
         450     0.052863    0.0197927  3.34606e-07 -4.71117e-05 
         450      0.06015     0.022521  4.33213e-07   -4.711e-05 
         450       0.0679    0.0254228  5.52041e-07 -4.71081e-05 
         450     0.076126    0.0285027  6.93902e-07 -4.71062e-05 
         450     0.084816    0.0317563  8.61367e-07 -4.71041e-05 
         450     0.093982    0.0351882   1.0576e-06 -4.71019e-05 
         450     0.103611    0.0387933  1.28542e-06 -4.70996e-05 
         450     0.113718    0.0425774  1.54843e-06 -4.70972e-05 
         450     0.124286     0.046534  1.84959e-06 -4.70946e-05 
         450     0.135333    0.0506699  2.19299e-06  -4.7092e-05 
         450      0.14685    0.0549817  2.58211e-06 -4.70892e-05 
         450     0.158827    0.0594655  3.02045e-06 -4.70863e-05 
         450     0.171284    0.0641289  3.51279e-06 -4.70834e-05 
         450     0.184201    0.0689643  4.06253e-06 -4.70803e-05 
         450     0.197599    0.0739795  4.67492e-06 -4.70771e-05 
         450     0.211455    0.0791658  5.35342e-06 -4.70737e-05 
         450     0.225792    0.0845317  6.10381e-06 -4.70703e-05 
         450       0.2406    0.0900735  6.93045e-06 -4.70667e-05 
         450     0.255865    0.0957857  7.83744e-06 -4.70631e-05 
         450     0.271613     0.101678   8.8315e-06 -4.70593e-05 
         450     0.287818      0.10774  9.91622e-06 -4.70554e-05 
         450     0.304506     0.113982  1.10988e-05 -4.70514e-05 
         450      0.32165     0.120394  1.23827e-05 -4.70473e-05 
         450     0.339278     0.126985   1.3776e-05 -4.70431e-05 
         450     0.357377     0.133751  1.52835e-05 -4.70387e-05 
         450      0.37593     0.140684  1.69097e-05 -4.70342e-05 
         450     0.394968     0.147796  1.86634e-05 -4.70297e-05 
         450     0.414461     0.155076  2.05481e-05  -4.7025e-05 
         450      0.43444     0.162534  2.25731e-05 -4.70201e-05 
         450     0.454872     0.170158  2.47417e-05 -4.70152e-05 
         450     0.475791      0.17796   2.7064e-05 -4.70102e-05 
         450     0.497163     0.185926   2.9543e-05  -4.7005e-05 
         450     0.519021     0.194068  3.21895e-05 -4.69997e-05 
         450      0.54135     0.202379  3.50085e-05 -4.69943e-05 
         450     0.564131     0.210852  3.80045e-05 -4.69887e-05 
         450       0.5874       0.2195  4.11894e-05 -4.69831e-05 
         450     0.611121     0.228306  4.45656e-05 -4.69773e-05 
         450      0.63533     0.237284  4.81449e-05 -4.69714e-05 
         450      0.65999     0.246419  5.19295e-05 -4.69653e-05 
         450     0.685139     0.255723  5.59323e-05 -4.69592e-05 
         450     0.710759     0.265187  6.01581e-05 -4.69529e-05 
         450     0.736828     0.274803  6.46103e-05 -4.69464e-05 
         450     0.763387     0.284582  6.93031e-05 -4.69398e-05 
         450     0.790396     0.294509  7.42365e-05 -4.69331e-05 
         450     0.817896     0.304595  7.94253e-05 -4.69262e-05 
         450     0.845843     0.314823   8.4868e-05 -4.69192e-05 
         450     0.874283     0.325206  9.05806e-05  -4.6912e-05 
         450      0.90317     0.335725  9.65606e-05 -4.69047e-05 
         450     0.932551     0.346394  0.000102824 -4.68972e-05 
         450     0.962401       0.3572  0.000109373 -4.68896e-05 
         450     0.992697     0.368131  0.000116208 -4.68818e-05 
         450      1.02349       0.3792  0.000123346 -4.68738e-05 
         450      1.05472     0.390386  0.000130781 -4.68657e-05 
         450      1.08645     0.401702   0.00013853 -4.68573e-05 
         450      1.11863     0.413126  0.000146585 -4.68488e-05 
         450       1.1513     0.424669  0.000154964   -4.684e-05 
         450      1.18444     0.436318  0.000163665  -4.6831e-05 
         450      1.21802     0.448057  0.000172683 -4.68218e-05 
         450      1.25211       0.4599  0.000182037 -4.68124e-05 
         450      1.28663     0.471819  0.000191712 -4.68028e-05 
         450      1.32165     0.483829  0.000201726  -4.6793e-05 
         450      1.35712     0.495901  0.000212065  -4.6783e-05 
         450      1.39308     0.508048  0.000222745 -4.67728e-05 
         450      1.42951     0.520252  0.000233757 -4.67622e-05 
         450      1.46638     0.532495   0.00024509 -4.67512e-05 
         450      1.50375     0.544787  0.000256758 -4.67394e-05 
         450      1.54156       0.5571  0.000268745 -4.67279e-05 
         450      1.57987     0.569443  0.000281057 -4.67162e-05 
         450      1.61863     0.581787  0.000293671 -4.67043e-05 
         450      1.65788     0.594142  0.000306603  -4.6692e-05 
         450      1.69757     0.606476  0.000319823 -4.66794e-05 
         450      1.73776     0.618799  0.000333346 -4.66664e-05 
         450      1.77842      0.63109   0.00034715 -4.66529e-05 
         450      1.81952     0.643326  0.000361211  -4.6639e-05 
         450      1.86113     0.655515  0.000375541 -4.66247e-05 
         450      1.90316     0.667627  0.000390102 -4.66099e-05 
         450      1.94571     0.679667    0.0004049 -4.65946e-05 
         450      1.98869     0.691604  0.000419896 -4.65789e-05 
         450      2.03217     0.703444  0.000435094 -4.65627e-05 
         450      2.07612     0.715166  0.000450464  -4.6546e-05 
         450      2.12051     0.726746  0.000465972 -4.65289e-05 
         450       2.1654      0.73819  0.000481622 -4.65113e-05 
         450      2.21073     0.749468  0.000497366 -4.64932e-05 
         450      2.25656     0.760585  0.000513204 -4.64747e-05 
         450      2.30283     0.771511  0.000529089 -4.64556e-05 
         450       2.3496      0.78225  0.000545019 -4.64361e-05 
         450      2.39685     0.792782  0.000560955 -4.64161e-05 
         450      2.44452     0.803088  0.000576858 -4.63955e-05 
         450      2.49271     0.813172  0.000592726 -4.63743e-05 
         450      2.54132     0.823008  0.000608506 -4.63526e-05 
         450      2.59044     0.832601  0.000624194 -4.63302e-05 
         450         2.64     0.841927  0.000639736 -4.63072e-05 
         450      2.69006     0.850991   0.00065513 -4.62836e-05 
         450      2.74056     0.859771  0.000670321 -4.62593e-05 
         450      2.79156     0.868275  0.000685306 -4.62343e-05 
         450      2.84304     0.876487  0.000700044 -4.62087e-05 
         450      2.89494     0.884397  0.000714497 -4.61824e-05 
         450      2.94735     0.892013  0.000728662 -4.61555e-05 
         450       3.0002     0.899318  0.000742492  -4.6128e-05 
         450      3.05355     0.906322  0.000755984    -4.61e-05 
         450      3.10733     0.913013  0.000769097 -4.60714e-05 
         450      3.16163     0.919399  0.000781831 -4.60425e-05 
         450      3.21639     0.925476  0.000794159 -4.60131e-05 
         450      3.27158     0.931242  0.000806054 -4.59834e-05 
         450      3.32729     0.936707  0.000817524 -4.59534e-05 
         450      3.38342     0.941867  0.000828539 -4.59232e-05 
         450      3.44007     0.946734  0.000839107 -4.58926e-05 
         450      3.49714     0.951306  0.000849204 -4.58615e-05 
         450      3.55472     0.955596  0.000858837 -4.58298e-05 
         450      3.61273     0.959604  0.000867984  -4.5797e-05 
         450      3.67125     0.963346  0.000876648 -4.57627e-05 
         450      3.73025     0.966825  0.000884806 -4.57261e-05 
         450      3.78967     0.970049  0.000892517 -4.56848e-05 
         450      3.84961     0.973033  0.000899778  -4.5645e-05 
         450      3.90996     0.975782   0.00090656 -4.56072e-05 
         450      3.97084      0.97831  0.000912889 -4.55706e-05 
         450      4.03214     0.980625  0.000918773 -4.55343e-05 
         450      4.09395     0.982741  0.000924236 -4.54978e-05 
         450      4.15624     0.984668  0.000929289  -4.5461e-05 
         450      4.21895     0.986416  0.000933946 -4.54238e-05 
         450      4.28217     0.987998  0.000938229 -4.53861e-05 
         450      4.34582     0.989424  0.000942148  -4.5348e-05 
         450      4.40998     0.990705  0.000945727 -4.53096e-05 
         450      4.47457     0.991852  0.000948979  -4.5271e-05 
         450      4.53968     0.992876  0.000951925  -4.5232e-05 
         450      4.60525     0.993786  0.000954581 -4.51926e-05 
         450      4.67125     0.994591  0.000956962 -4.51524e-05 
         450      4.73777     0.995303  0.000959089 -4.51109e-05 
         450       4.8047     0.995927  0.000960973 -4.50673e-05 
         450      4.87216     0.996475  0.000962631 -4.50204e-05 
         450      4.94003     0.996952  0.000964071 -4.49687e-05 
         450      5.00843     0.997367  0.000965334 -4.49134e-05 
         450      5.07724     0.997726  0.000966536 -4.48685e-05 
         450      5.14658     0.998036  0.000967576 -4.48246e-05 
         450      5.21639     0.998301  0.000968472 -4.47809e-05 
         450      5.28661     0.998528  0.000969242 -4.47372e-05 
         450      5.35736     0.998721  0.000969904 -4.46929e-05 
         450      5.42852     0.998885   0.00097047 -4.46479e-05 
         450      5.50021     0.999023  0.000970954 -4.46018e-05 
         450      5.57231     0.999139  0.000971364 -4.45548e-05 
         450      5.64493     0.999236  0.000971711 -4.45067e-05 
         450      5.71803     0.999317  0.000972003 -4.44578e-05 
         450      5.79154     0.999384  0.000972246 -4.44083e-05 
         450      5.86558     0.999439  0.000972447 -4.43585e-05 
         450      5.94003     0.999484  0.000972613 -4.43088e-05 
         450      6.01501     0.999522  0.000972751 -4.42598e-05 
         450       6.0904     0.999552  0.000972868  -4.4212e-05 
         450      6.16632     0.999576  0.000972972  -4.4166e-05 
         450      6.24271     0.999596  0.000973073 -4.41226e-05 
         450       6.3195     0.999612  0.000973167 -4.40697e-05 
         450      6.39683     0.999625  0.000973209 -4.40088e-05 
         450      6.47457     0.999635  0.000973235 -4.39559e-05 
         450      6.55284     0.999643  0.000973263 -4.39081e-05 
         450      6.63152     0.999649  0.000973301 -4.38634e-05 
         450      6.71073     0.999654  0.000973345 -4.38203e-05 
         450      6.79034     0.999658  0.000973389 -4.37781e-05 
         450      6.87049     0.999661  0.000973425 -4.37361e-05 
         450      6.95111     0.999664  0.000973448 -4.36937e-05 
         450      7.03214     0.999666  0.000973457 -4.36508e-05 
         450       7.1137     0.999667  0.000973453 -4.36065e-05 
         450      7.19566     0.999669   0.00097344 -4.35604e-05 
         450      7.27816      0.99967  0.000973423 -4.35115e-05 
         450      7.36106     0.999671   0.00097341 -4.34585e-05 
         450      7.44451     0.999671  0.000973405 -4.33999e-05 
         450      7.52842     0.999672  0.000973414 -4.33339e-05 
         450      7.61273     0.999672  0.000973435 -4.32588e-05 
         450      7.69758     0.999673  0.000973467 -4.31722e-05 
         450      7.78283     0.999673  0.000973473 -4.31421e-05 
         450      7.86862     0.999674   0.00097348 -4.31085e-05 
         450      7.95481     0.999674  0.000973491  -4.3062e-05 
         450      8.04155     0.999675  0.000973502 -4.30081e-05 
         450      8.12868     0.999675   0.00097351 -4.29505e-05 
         450      8.21635     0.999675  0.000973513 -4.28917e-05 
         450      8.30449     0.999676  0.000973512 -4.28329e-05 
         450      8.39303     0.999676  0.000973508 -4.27744e-05 
         450      8.48211     0.999676  0.000973504  -4.2716e-05 
         450      8.57159     0.999677  0.000973502 -4.26575e-05 
         450      8.66161     0.999677  0.000973507 -4.25986e-05 
         450      8.75203     0.999678  0.000973517 -4.25401e-05 
         450      8.84299     0.999678  0.000973526 -4.24837e-05 
         450      8.93443     0.999678  0.000973518 -4.24333e-05 
         450      9.02626     0.999679  0.000973517 -4.23642e-05 
         450      9.11863     0.999679  0.000973567 -4.22886e-05 
         450      9.21139     0.999679  0.000973609 -4.22317e-05 
         450      9.30471      0.99968  0.000973625  -4.2187e-05 
         450      9.39841      0.99968  0.000973613 -4.21492e-05 
         450      9.49267      0.99968  0.000973581 -4.21132e-05 
         450      9.58739     0.999681  0.000973539 -4.20733e-05 
         450      9.68251     0.999682  0.000973495 -4.20223e-05 
         450      9.77817     0.999682  0.000973447 -4.19505e-05 
         450      9.87422     0.999682  0.000973413 -4.18755e-05 
         450      9.97083     0.999683  0.000973459 -4.18155e-05 
         450      10.0678     0.999683  0.000973533 -4.17454e-05 
         450      10.1654     0.999684  0.000973612  -4.1669e-05 
         450      10.2633     0.999684  0.000973679 -4.15895e-05 
         450      10.3618     0.999684  0.000973726 -4.15093e-05 
         450      10.4607     0.999685  0.000973749 -4.14301e-05 
         450      10.5601     0.999685  0.000973751 -4.13534e-05 
         450        10.66     0.999685  0.000973737 -4.12799e-05 
         450      10.7603     0.999686  0.000973712 -4.12103e-05 
         450      10.8611     0.999686  0.000973685 -4.11447e-05 
         450      10.9623     0.999687  0.000973663 -4.10831e-05 
         450      11.0641     0.999687   0.00097365 -4.10251e-05 
         450      11.1663     0.999688  0.000973651 -4.09701e-05 
         450       11.269     0.999688  0.000973665 -4.09171e-05 
         450      11.3721     0.999689  0.000973691 -4.08651e-05 
         450      11.4757     0.999689  0.000973723 -4.08128e-05 
         450      11.5798      0.99969  0.000973754 -4.07587e-05 
         450      11.6844      0.99969  0.000973776 -4.07017e-05 
         450      11.7894      0.99969   0.00097378 -4.06408e-05 
         450       11.895     0.999691  0.000973764 -4.05758e-05 
         450      12.0009     0.999691  0.000973731 -4.05074e-05 
         450      12.1073     0.999692  0.000973697 -4.04378e-05 
         450      12.2142     0.999692  0.000973697 -4.03718e-05 
         450      12.3216     0.999692   0.00097379 -4.03167e-05 
         450      12.4294     0.999693  0.000973783 -4.02548e-05 
         450      12.5378     0.999694  0.000973701  -4.0192e-05 
         450      12.6465     0.999694  0.000973643 -4.01323e-05 
         450      12.7558     0.999695  0.000973622 -4.00724e-05 
         450      12.8656     0.999695  0.000973639 -4.00103e-05 
         450      12.9757     0.999695  0.000973682  -3.9945e-05 
         450      13.0864     0.999696  0.000973741 -3.98757e-05 
         450      13.1975     0.999696  0.000973802 -3.98027e-05 
         450      13.3092     0.999697  0.000973853 -3.97263e-05 
         450      13.4212     0.999697  0.000973885 -3.96471e-05 
         450      13.5338     0.999698  0.000973896 -3.95658e-05 
         450      13.6468     0.999699  0.000973884 -3.94832e-05 
         450      13.7603     0.999699  0.000973855 -3.94002e-05 
         450      13.8743       0.9997  0.000973813 -3.93172e-05 
         450      13.9886       0.9997  0.000973768 -3.92349e-05 
         450      14.1036     0.999701  0.000973729 -3.91534e-05 
         450      14.2189     0.999701  0.000973704 -3.90729e-05 
         450      14.3348     0.999702  0.000973701 -3.89935e-05 
         450       14.451     0.999702  0.000973723 -3.89148e-05 
         450      14.5678     0.999703  0.000973773 -3.88367e-05 
         450      14.6851     0.999703  0.000973846 -3.87587e-05 
         450      14.8028     0.999704  0.000973938 -3.86805e-05 
         450       14.921     0.999704  0.000974037 -3.86016e-05 
         450      15.0396     0.999705  0.000974133 -3.85219e-05 
         450      15.1588     0.999705  0.000974212 -3.84411e-05 
         450      15.2783     0.999706  0.000974262 -3.83594e-05 
         450      15.3984     0.999706  0.000974271 -3.82769e-05 
         450       15.519     0.999707  0.000974234 -3.81942e-05 
         450        15.64     0.999707  0.000974149 -3.81122e-05 
         450      15.7615     0.999708  0.000974023 -3.80317e-05 
         450      15.8834     0.999708  0.000973873 -3.79542e-05 
         450      16.0058     0.999709  0.000973721 -3.78809e-05 
         450      16.1286     0.999709  0.000973598 -3.78134e-05 
         450       16.252      0.99971  0.000973539 -3.77528e-05 
         450      16.3759     0.999711  0.000973577    -3.77e-05 
         450      16.5002     0.999712  0.000973734 -3.76554e-05 
         450       16.625     0.999712   0.00097401 -3.76181e-05 
         450      16.7501     0.999713  0.000974363 -3.75858e-05 
         450      16.8759     0.999713  0.000974691 -3.75543e-05 
         450       17.002     0.999714  0.000974717 -3.74111e-05 
         450      17.1287     0.999714  0.000974195 -3.72521e-05 
         450      17.2557     0.999714  0.000972798 -3.71558e-05 
         450      17.3834     0.999715  0.000973247 -3.71372e-05 
         450      17.5115     0.999717  0.000974401 -3.69958e-05 
         450      17.6399     0.999718  0.000974829 -3.67243e-05 
         450       17.769     0.999718   0.00097475 -3.63583e-05 
         450      17.8984     0.999718  0.000974551 -3.62503e-05 
         450      18.0284     0.999718  0.000974353 -3.63689e-05 
         450      18.1587     0.999718  0.000974081 -3.64416e-05 
         450      18.2896     0.999719  0.000973812 -3.64707e-05 
         450       18.421     0.999719  0.000973602 -3.64605e-05 
         450      18.5528      0.99972  0.000973483 -3.64168e-05 
         450      18.6851     0.999721  0.000973469 -3.63458e-05 
         450      18.8178     0.999722  0.000973553 -3.62544e-05 
         450      18.9511     0.999723  0.000973717 -3.61487e-05 
         450      19.0847     0.999724  0.000973933 -3.60346e-05 
         450      19.2189     0.999724  0.000974168 -3.59169e-05 
         450      19.3535     0.999725  0.000974389 -3.57998e-05 
         450      19.4886     0.999726  0.000974565 -3.56858e-05 
         450      19.6242     0.999726  0.000974675  -3.5577e-05 
         450      19.7602     0.999727  0.000974706 -3.54741e-05 
         450      19.8968     0.999727  0.000974655 -3.53771e-05 
         450      20.0337     0.999728  0.000974533 -3.52852e-05 
         450      20.1712     0.999728  0.000974358 -3.51972e-05 
         450      20.3091     0.999729  0.000974158 -3.51118e-05 
         450      20.4475     0.999729  0.000973965 -3.50272e-05 
         450      20.5864      0.99973  0.000973811 -3.49424e-05 
         450      20.7257     0.999731  0.000973726 -3.48566e-05 
         450      20.8655     0.999731  0.000973728 -3.47694e-05 
         450      21.0058     0.999732  0.000973824 -3.46815e-05 
         450      21.1465     0.999733  0.000974003 -3.45939e-05 
         450      21.2877     0.999734  0.000974234 -3.45085e-05 
         450      21.4294     0.999734   0.00097447  -3.4427e-05 
         450      21.5716     0.999735  0.000974652 -3.43515e-05 
         450      21.7142     0.999735  0.000974717 -3.42833e-05 
         450      21.8573     0.999736  0.000974619 -3.42218e-05 
         450      22.0008     0.999737  0.000974351 -3.41639e-05 
         450      22.1449     0.999738  0.000973985 -3.41021e-05 
         450      22.2893     0.999739  0.000973722 -3.40233e-05 
         450      22.4344      0.99974   0.00097395 -3.39059e-05 
         450      22.5797      0.99974  0.000975335 -3.37178e-05 
         450      22.7257     0.999741  0.000974446 -3.36666e-05 
         450      22.8721     0.999741   0.00097383 -3.35893e-05 
         450      23.0189     0.999742  0.000973805 -3.34723e-05 
         450      23.1663     0.999743  0.000974059 -3.33395e-05 
         450       23.314     0.999744  0.000974387 -3.32073e-05 
         450      23.4623     0.999745   0.00097467 -3.30855e-05 
         450       23.611     0.999745  0.000974849 -3.29794e-05 
         450      23.7602     0.999746  0.000974908 -3.28899e-05 
         450        23.91     0.999747   0.00097486 -3.28154e-05 
         450        24.06     0.999748  0.000974732 -3.27525e-05 
         450      24.2107     0.999748  0.000974561 -3.26963e-05 
         450      24.3617     0.999749  0.000974379 -3.26419e-05 
         450      24.5133      0.99975  0.000974216 -3.25844e-05 
         450      24.6653     0.999751  0.000974094 -3.25196e-05 
         450      24.8178     0.999751  0.000974025 -3.24444e-05 
         450      24.9708     0.999752  0.000974012 -3.23568e-05 
         450      25.1242     0.999753  0.000974053 -3.22565e-05 
         450      25.2781     0.999754  0.000974136 -3.21442e-05 
         450      25.4324     0.999754  0.000974248 -3.20221e-05 
         450      25.5873     0.999755  0.000974374 -3.18932e-05 
         450      25.7426     0.999756  0.000974498 -3.17615e-05 
         450      25.8984     0.999756  0.000974609 -3.16312e-05 
         450      26.0546     0.999757  0.000974696 -3.15061e-05 
         450      26.2114     0.999758  0.000974755 -3.13892e-05 
         450      26.3686     0.999759   0.00097478 -3.12818e-05 
         450      26.5262      0.99976  0.000974768 -3.11829e-05 
         450      26.6844      0.99976   0.00097471 -3.10881e-05 
         450      26.8429     0.999761  0.000974586 -3.09887e-05 
         450       27.002     0.999762  0.000974362 -3.08706e-05 
         450      27.1615     0.999763  0.000973973 -3.07135e-05 
         450      27.3216     0.999763  0.000973722  -3.0571e-05 
         450      27.4821     0.999765  0.000974152 -3.05613e-05 
         450       27.643     0.999766   0.00097448 -3.05247e-05 
         450      27.8044     0.999767  0.000974724 -3.04579e-05 
         450      27.9663     0.999767  0.000974897 -3.03608e-05 
         450      28.1287     0.999768  0.000975001 -3.02362e-05 
         450      28.2914     0.999768  0.000975034 -3.00918e-05 
         450      28.4548     0.999768  0.000974985 -2.99404e-05 
         450      28.6185     0.999769   0.00097484 -2.98017e-05 
         450      28.7828      0.99977  0.000974584 -2.97031e-05 
         450      28.9475     0.999771  0.000974207 -2.96822e-05 
         450      29.1126     0.999773  0.000973712 -2.97875e-05 
         450      29.2784     0.999773  0.000974353 -2.95623e-05 
         450      29.4444     0.999774  0.000974596 -2.93454e-05 
         450       29.611     0.999774  0.000974566 -2.91755e-05 
         450       29.778     0.999775  0.000974457 -2.90387e-05 
         450      29.9456     0.999776  0.000974369 -2.89235e-05 
         450      30.1137     0.999777  0.000974343 -2.88209e-05 
         450      30.2821     0.999778  0.000974376 -2.87235e-05 
         450      30.4511     0.999779  0.000974446 -2.86246e-05 
         450      30.6204      0.99978  0.000974518 -2.85185e-05 
         450      30.7903      0.99978  0.000974557 -2.83993e-05 
         450      30.9606     0.999781  0.000974529 -2.82609e-05 
         450      31.1315     0.999783  0.000974446  -2.8114e-05 
         450      31.3028     0.999784  0.000974629 -2.80998e-05 
         450      31.4745     0.999785  0.000974756 -2.80642e-05 
         450      31.6468     0.999786  0.000974831 -2.80063e-05 
         450      31.8194     0.999786  0.000974861 -2.79266e-05 
         450      31.9926     0.999787  0.000974852 -2.78265e-05 
         450      32.1662     0.999788  0.000974813 -2.77087e-05 
         450      32.3404     0.999789  0.000974755 -2.75765e-05 
         450      32.5149      0.99979   0.00097469  -2.7434e-05 
         450        32.69     0.999791  0.000974629 -2.72853e-05 
         450      32.8655     0.999792  0.000974582 -2.71347e-05 
         450      33.0414     0.999793  0.000974555 -2.69862e-05 
         450       33.218     0.999794  0.000974554 -2.68428e-05 
         450      33.3948     0.999795  0.000974579 -2.67073e-05 
         450      33.5723     0.999796  0.000974627 -2.65805e-05 
         450        33.75     0.999797  0.000974692 -2.64628e-05 
         450      33.9284     0.999798  0.000974765 -2.63528e-05 
         450      34.1073     0.999799  0.000974837 -2.62485e-05 
         450      34.2865       0.9998  0.000974896  -2.6147e-05 
         450      34.4663       0.9998  0.000974937 -2.60446e-05 
         450      34.6465     0.999801  0.000974953 -2.59386e-05 
         450      34.8272     0.999802  0.000974947 -2.58272e-05 
         450      35.0083     0.999803  0.000974924 -2.57115e-05 
         450        35.19     0.999804  0.000974895 -2.55966e-05 
         450      35.3721     0.999805  0.000974872 -2.54938e-05 
         450      35.5546     0.999806  0.000974869 -2.54228e-05 
         450      35.7377     0.999807  0.000974886 -2.54066e-05 
         450      35.9211     0.999808  0.000974801 -2.51915e-05 
         450      36.1052     0.999808  0.000974765 -2.50081e-05 
         450      36.2895      0.99981  0.000974773 -2.48504e-05 
         450      36.4745     0.999811  0.000974812 -2.47122e-05 
         450      36.6598     0.999812  0.000974869 -2.45883e-05 
         450      36.8457     0.999813  0.000974931 -2.44734e-05 
         450      37.0321     0.999814  0.000974985 -2.43636e-05 
         450      37.2188     0.999815  0.000975023 -2.42551e-05 
         450      37.4062     0.999816   0.00097504 -2.41452e-05 
         450      37.5938     0.999817  0.000975033 -2.40317e-05 
         450      37.7821     0.999817  0.000975004 -2.39132e-05 
         450      37.9707     0.999818  0.000974958 -2.37892e-05 
         450      38.1599     0.999819    0.0009749 -2.36593e-05 
         450      38.3496      0.99982  0.000974838  -2.3524e-05 
         450      38.5396     0.999821  0.000974779 -2.33844e-05 
         450      38.7302     0.999822  0.000974731 -2.32415e-05 
         450      38.9211     0.999823    0.0009747 -2.30971e-05 
         450      39.1127     0.999824  0.000974689 -2.29526e-05 
         450      39.3046     0.999825  0.000974701 -2.28098e-05 
         450      39.4971     0.999826  0.000974734 -2.26702e-05 
         450      39.6899     0.999827  0.000974785 -2.25352e-05 
         450      39.8833     0.999828  0.000974848 -2.24059e-05 
         450      40.0772     0.999829  0.000974915 -2.22829e-05 
         450      40.2714      0.99983  0.000974978 -2.21666e-05 
         450      40.4663     0.999831  0.000975027 -2.20565e-05 
         450      40.6615     0.999833  0.000975054 -2.19521e-05 
         450      40.8573     0.999834  0.000975052 -2.18516e-05 
         450      41.0534     0.999835  0.000975017 -2.17536e-05 
         450      41.2501     0.999836   0.00097495 -2.16555e-05 
         450      41.4473     0.999837  0.000974856 -2.15551e-05 
         450      41.6448     0.999838  0.000974745 -2.14498e-05 
         450      41.8429     0.999839  0.000974632 -2.13371e-05 
         450      42.0414      0.99984  0.000974538 -2.12154e-05 
         450      42.2405     0.999841  0.000974484 -2.10836e-05 
         450      42.4399     0.999842  0.000974493 -2.09423e-05 
         450      42.6399     0.999843  0.000974581 -2.07938e-05 
         450      42.8404     0.999844  0.000974754 -2.06434e-05 
         450      43.0412     0.999845  0.000974998 -2.04997e-05 
         450      43.2426     0.999846  0.000975268 -2.03754e-05 
         450      43.4444     0.999847  0.000975476 -2.02892e-05 
         450      43.6467     0.999849  0.000975469 -2.02657e-05 
         450      43.8494      0.99985  0.000975015 -2.03378e-05 
         450      44.0527     0.999853  0.000974053 -2.04807e-05 
         450      44.2563     0.999853  0.000974513 -2.02375e-05 
         450      44.4606     0.999854  0.000974833 -1.99972e-05 
         450      44.6653     0.999855  0.000975014  -1.9754e-05 
         450      44.8704     0.999855  0.000975057 -1.95002e-05 
         450       45.076     0.999856  0.000975024 -1.91269e-05 
         450       45.282     0.999857  0.000975223 -1.86695e-05 
         450      45.4886     0.999858  0.000975513 -1.83207e-05 
         450      45.6955     0.999859  0.000975743 -1.80541e-05 
         450       45.903      0.99986   0.00097582 -1.78513e-05 
         450      46.1111     0.999861   0.00097592 -1.79846e-05 
         450      46.3194     0.999862  0.000975903 -1.80566e-05 
         450      46.5283     0.999863  0.000975797 -1.80783e-05 
         450      46.7376     0.999865  0.000975632 -1.80594e-05 
         450      46.9475     0.999866  0.000975433 -1.80078e-05 
         450      47.1577     0.999867  0.000975226 -1.79305e-05 
         450      47.3685     0.999868  0.000975029 -1.78333e-05 
         450      47.5798     0.999869  0.000974858  -1.7721e-05 
         450      47.7914      0.99987  0.000974725 -1.75977e-05 
         450      48.0037     0.999871  0.000974635 -1.74662e-05 