Variables = x, y, u, v, p

Zone, I=800, F=POINT
         850            0           -0           -0 -3.05799e-05 
         850     0.000234  7.12891e-05  3.70707e-12 -3.05799e-05 
         850     0.000939   0.00028607  5.74209e-11 -3.05798e-05 
         850     0.002113  0.000643735  2.88634e-10 -3.05796e-05 
         850     0.003759    0.0011452  9.11095e-10 -3.05794e-05 
         850     0.005872   0.00178893  2.22056e-09 -3.05791e-05 
         850     0.008457   0.00257646   4.6029e-09 -3.05788e-05 
         850      0.01151   0.00350657   8.5226e-09 -3.05784e-05 
         850     0.015036   0.00458079  1.45402e-08  -3.0578e-05 
         850     0.019031   0.00579788  2.32891e-08 -3.05774e-05 
         850     0.023493   0.00715725  3.54855e-08 -3.05769e-05 
         850     0.028429   0.00866103  5.19586e-08 -3.05762e-05 
         850     0.033831    0.0103068  7.35756e-08 -3.05755e-05 
         850     0.039706    0.0120966  1.01343e-07 -3.05748e-05 
         850     0.046047    0.0140284   1.3629e-07  -3.0574e-05 
         850     0.052863     0.016105  1.79618e-07 -3.05731e-05 
         850      0.06015     0.018325  2.32544e-07 -3.05722e-05 
         850       0.0679     0.020686  2.96322e-07 -3.05712e-05 
         850     0.076126    0.0231921  3.72462e-07 -3.05701e-05 
         850     0.084816    0.0258396  4.62343e-07  -3.0569e-05 
         850     0.093982     0.028632  5.67663e-07 -3.05678e-05 
         850     0.103611    0.0315655  6.89932e-07 -3.05666e-05 
         850     0.113718    0.0346446  8.31089e-07 -3.05653e-05 
         850     0.124286    0.0378641  9.92724e-07 -3.05639e-05 
         850     0.135333    0.0412294  1.17702e-06 -3.05625e-05 
         850      0.14685     0.044738  1.38586e-06  -3.0561e-05 
         850     0.158827    0.0483866  1.62111e-06 -3.05595e-05 
         850     0.171284    0.0521813  1.88534e-06 -3.05579e-05 
         850     0.184201    0.0561161  2.18038e-06 -3.05562e-05 
         850     0.197599    0.0601973  2.50905e-06 -3.05545e-05 
         850     0.211455    0.0644179  2.87319e-06 -3.05527e-05 
         850     0.225792    0.0687848  3.27593e-06 -3.05509e-05 
         850       0.2406     0.073295  3.71961e-06  -3.0549e-05 
         850     0.255865    0.0779441   4.2064e-06  -3.0547e-05 
         850     0.271613      0.08274  4.73999e-06  -3.0545e-05 
         850     0.287818    0.0876747  5.32226e-06 -3.05429e-05 
         850     0.304506    0.0927561  5.95704e-06 -3.05407e-05 
         850      0.32165    0.0979758  6.64632e-06 -3.05385e-05 
         850     0.339278     0.103342  7.39434e-06 -3.05362e-05 
         850     0.357377     0.108851  8.20377e-06 -3.05339e-05 
         850      0.37593     0.114498  9.07706e-06 -3.05315e-05 
         850     0.394968     0.120291  1.00189e-05  -3.0529e-05 
         850     0.414461     0.126221  1.10313e-05 -3.05265e-05 
         850      0.43444     0.132298  1.21192e-05 -3.05239e-05 
         850     0.454872     0.138511  1.32845e-05 -3.05213e-05 
         850     0.475791     0.144871  1.45326e-05 -3.05186e-05 
         850     0.497163     0.151366  1.58654e-05 -3.05158e-05 
         850     0.519021     0.158007  1.72886e-05  -3.0513e-05 
         850      0.54135     0.164788  1.88051e-05 -3.05101e-05 
         850     0.564131     0.171704  2.04172e-05 -3.05071e-05 
         850       0.5874     0.178764  2.21317e-05 -3.05041e-05 
         850     0.611121     0.185958  2.39504e-05  -3.0501e-05 
         850      0.63533     0.193295  2.58792e-05 -3.04979e-05 
         850      0.65999     0.200765  2.79192e-05 -3.04947e-05 
         850     0.685139     0.208377  3.00783e-05 -3.04914e-05 
         850     0.710759     0.216126  3.23596e-05  -3.0488e-05 
         850     0.736828     0.224004  3.47652e-05 -3.04846e-05 
         850     0.763387     0.232023  3.73031e-05 -3.04811e-05 
         850     0.790396      0.24017  3.99735e-05 -3.04775e-05 
         850     0.817896     0.248456  4.27845e-05 -3.04739e-05 
         850     0.845843     0.256866  4.57359e-05 -3.04702e-05 
         850     0.874283     0.265414  4.88368e-05 -3.04665e-05 
         850      0.90317     0.274084  5.20867e-05 -3.04627e-05 
         850     0.932551     0.282888  5.54952e-05 -3.04588e-05 
         850     0.962401     0.291819  5.90642e-05 -3.04548e-05 
         850     0.992697     0.300866  6.27952e-05 -3.04507e-05 
         850      1.02349     0.310044  6.66985e-05 -3.04466e-05 
         850      1.05472     0.319335   7.0772e-05 -3.04424e-05 
         850      1.08645     0.328752  7.50264e-05 -3.04381e-05 
         850      1.11863     0.338278  7.94585e-05 -3.04337e-05 
         850       1.1513     0.347926   8.4079e-05 -3.04293e-05 
         850      1.18444     0.357685  8.88879e-05 -3.04247e-05 
         850      1.21802     0.367545  9.38845e-05 -3.04201e-05 
         850      1.25211     0.377519  9.90807e-05 -3.04154e-05 
         850      1.28663     0.387588  0.000104471 -3.04106e-05 
         850      1.32165     0.397764   0.00011007 -3.04057e-05 
         850      1.35712     0.408029   0.00011587 -3.04006e-05 
         850      1.39308     0.418393  0.000121884 -3.03954e-05 
         850      1.42951     0.428847   0.00012811 -3.03902e-05 
         850      1.46638     0.439376  0.000134541  -3.0385e-05 
         850      1.50375     0.449994  0.000141179 -3.03799e-05 
         850      1.54156     0.460678   0.00014803 -3.03735e-05 
         850      1.57987     0.471442  0.000155123 -3.03675e-05 
         850      1.61863     0.482262  0.000162438 -3.03618e-05 
         850      1.65788     0.493152   0.00016998 -3.03562e-05 
         850      1.69757     0.504087  0.000177732 -3.03505e-05 
         850      1.73776      0.51508  0.000185704 -3.03447e-05 
         850      1.77842     0.526115  0.000193888 -3.03386e-05 
         850      1.81952     0.537178  0.000202276 -3.03322e-05 
         850      1.86113      0.54828  0.000210883 -3.03256e-05 
         850      1.90316     0.559395  0.000219695 -3.03186e-05 
         850      1.94571     0.570535  0.000228723 -3.03114e-05 
         850      1.98869     0.581674  0.000237954 -3.03039e-05 
         850      2.03217     0.592823  0.000247399 -3.02961e-05 
         850      2.07612     0.603965  0.000257048 -3.02882e-05 
         850      2.12051     0.615083  0.000266888 -3.02801e-05 
         850       2.1654     0.626186  0.000276929 -3.02719e-05 
         850      2.21073     0.637248  0.000287148 -3.02636e-05 
         850      2.25656     0.648279  0.000297553 -3.02552e-05 
         850      2.30283     0.659251  0.000308119 -3.02467e-05 
         850       2.3496     0.670173   0.00031885  -3.0238e-05 
         850      2.39685     0.681028  0.000329728 -3.02293e-05 
         850      2.44452     0.691797  0.000340733 -3.02205e-05 
         850      2.49271     0.702487  0.000351869 -3.02114e-05 
         850      2.54132     0.713074  0.000363107 -3.02021e-05 
         850      2.59044     0.723564  0.000374452 -3.01925e-05 
         850         2.64     0.733931  0.000385873 -3.01825e-05 
         850      2.69006     0.744182  0.000397377 -3.01721e-05 
         850      2.74056     0.754291  0.000408933 -3.01613e-05 
         850      2.79156     0.764266  0.000420547   -3.015e-05 
         850      2.84304     0.774088  0.000432197 -3.01382e-05 
         850      2.89494     0.783742  0.000443862 -3.01259e-05 
         850      2.94735     0.793233  0.000455547 -3.01132e-05 
         850       3.0002     0.802539  0.000467219    -3.01e-05 
         850      3.05355     0.811666  0.000478879 -3.00864e-05 
         850      3.10733      0.82059  0.000490492 -3.00726e-05 
         850      3.16163      0.82932  0.000502057 -3.00586e-05 
         850      3.21639     0.837841  0.000513543 -3.00445e-05 
         850      3.27158     0.846139  0.000524917 -3.00303e-05 
         850      3.32729     0.854222  0.000536172 -3.00161e-05 
         850      3.38342      0.86207  0.000547268 -3.00017e-05 
         850      3.44007     0.869691  0.000558202 -2.99869e-05 
         850      3.49714     0.877069  0.000568941 -2.99713e-05 
         850      3.55472     0.884211  0.000579499 -2.99541e-05 
         850      3.61273     0.891102  0.000589876 -2.99343e-05 
         850      3.67125     0.897751   0.00060013 -2.99102e-05 
         850      3.73025     0.904149  0.000610337 -2.98798e-05 
         850      3.78967     0.910291  0.000619996 -2.98699e-05 
         850      3.84961     0.916186   0.00062931 -2.98664e-05 
         850      3.90996     0.921824  0.000638472 -2.98569e-05 
         850      3.97084     0.927216  0.000647438 -2.98436e-05 
         850      4.03214     0.932354  0.000656149  -2.9828e-05 
         850      4.09395     0.937247  0.000664583 -2.98114e-05 
         850      4.15624     0.941895  0.000672711 -2.97944e-05 
         850      4.21895     0.946297   0.00068051 -2.97776e-05 
         850      4.28217     0.950464  0.000687986 -2.97612e-05 
         850      4.34582     0.954394  0.000695122 -2.97452e-05 
         850      4.40998     0.958098  0.000701933 -2.97293e-05 
         850      4.47457     0.961577  0.000708409 -2.97134e-05 
         850      4.53968     0.964842  0.000714569 -2.96971e-05 
         850      4.60525     0.967896  0.000720412 -2.96801e-05 
         850      4.67125     0.970744  0.000725944 -2.96619e-05 
         850      4.73777     0.973399   0.00073118 -2.96424e-05 
         850       4.8047     0.975862   0.00073612 -2.96212e-05 
         850      4.87216     0.978147  0.000740777 -2.95983e-05 
         850      4.94003     0.980258  0.000745152 -2.95735e-05 
         850      5.00843     0.982205  0.000749257 -2.95471e-05 
         850      5.07724     0.983995  0.000753091  -2.9519e-05 
         850      5.14658     0.985637  0.000756666 -2.94898e-05 
         850      5.21639     0.987139  0.000759984 -2.94596e-05 
         850      5.28661     0.988508  0.000763049 -2.94291e-05 
         850      5.35736     0.989755  0.000765872 -2.93987e-05 
         850      5.42852     0.990885  0.000768456 -2.93691e-05 
         850      5.50021     0.991908  0.000770814 -2.93405e-05 
         850      5.57231     0.992829  0.000772953 -2.93138e-05 
         850      5.64493     0.993659  0.000774888  -2.9289e-05 
         850      5.71803     0.994402  0.000776629 -2.92667e-05 
         850      5.79154     0.995066   0.00077819 -2.92468e-05 
         850      5.86558     0.995659  0.000779589 -2.92292e-05 
         850      5.94003     0.996185  0.000780841 -2.92136e-05 
         850      6.01501     0.996651  0.000781981  -2.9194e-05 
         850       6.0904     0.997062  0.000783037 -2.91665e-05 
         850      6.16632     0.997424  0.000783987 -2.91412e-05 
         850      6.24271     0.997742  0.000784842 -2.91176e-05 
         850       6.3195      0.99802  0.000785613 -2.90954e-05 
         850      6.39683     0.998262  0.000786307  -2.9074e-05 
         850      6.47457     0.998472  0.000786928 -2.90534e-05 
         850      6.55284     0.998654   0.00078748  -2.9033e-05 
         850      6.63152     0.998811   0.00078796 -2.90127e-05 
         850      6.71073     0.998946   0.00078837 -2.89919e-05 
         850      6.79034     0.999062  0.000788707 -2.89704e-05 
         850      6.87049      0.99916  0.000788971 -2.89475e-05 
         850      6.95111     0.999244  0.000789165 -2.89225e-05 
         850      7.03214     0.999314  0.000789298 -2.88945e-05 
         850       7.1137     0.999374  0.000789388 -2.88625e-05 
         850      7.19566     0.999424  0.000789469 -2.88252e-05 
         850      7.27816     0.999466  0.000789595 -2.87809e-05 
         850      7.36106     0.999501  0.000789845 -2.87279e-05 
         850      7.44451     0.999531  0.000790194 -2.86808e-05 
         850      7.52842     0.999555  0.000789997 -2.87057e-05 
         850      7.61273     0.999575  0.000789934  -2.8705e-05 
         850      7.69758     0.999591  0.000789955 -2.86852e-05 
         850      7.78283     0.999605  0.000790022 -2.86516e-05 
         850      7.86862     0.999616  0.000790109 -2.86087e-05 
         850      7.95481     0.999625  0.000790197 -2.85603e-05 
         850      8.04155     0.999632  0.000790275 -2.85096e-05 
         850      8.12868     0.999638  0.000790336 -2.84589e-05 
         850      8.21635     0.999643  0.000790379 -2.84102e-05 
         850      8.30449     0.999647  0.000790404 -2.83647e-05 
         850      8.39303      0.99965  0.000790414 -2.83234e-05 
         850      8.48211     0.999653  0.000790414 -2.82866e-05 
         850      8.57159     0.999655  0.000790406 -2.82545e-05 
         850      8.66161     0.999657  0.000790394 -2.82268e-05 
         850      8.75203     0.999658  0.000790383 -2.82031e-05 
         850      8.84299      0.99966  0.000790374 -2.81828e-05 
         850      8.93443     0.999661  0.000790369  -2.8165e-05 
         850      9.02626     0.999662  0.000790369 -2.81489e-05 
         850      9.11863     0.999662  0.000790374 -2.81336e-05 
         850      9.21139     0.999663  0.000790384 -2.81182e-05 
         850      9.30471     0.999664  0.000790396 -2.81018e-05 
         850      9.39841     0.999664   0.00079041 -2.80836e-05 
         850      9.49267     0.999665  0.000790425  -2.8063e-05 
         850      9.58739     0.999665  0.000790437 -2.80395e-05 
         850      9.68251     0.999666  0.000790447 -2.80126e-05 
         850      9.77817     0.999666  0.000790453 -2.79821e-05 
         850      9.87422     0.999667  0.000790455 -2.79481e-05 
         850      9.97083     0.999667  0.000790453 -2.79107e-05 
         850      10.0678     0.999668  0.000790449 -2.78703e-05 
         850      10.1654     0.999668  0.000790442 -2.78274e-05 
         850      10.2633     0.999669  0.000790436 -2.77826e-05 
         850      10.3618     0.999669  0.000790431 -2.77368e-05 
         850      10.4607     0.999669  0.000790429 -2.76909e-05 
         850      10.5601      0.99967   0.00079043 -2.76458e-05 
         850        10.66      0.99967  0.000790435 -2.76023e-05 
         850      10.7603     0.999671  0.000790443 -2.75615e-05 
         850      10.8611     0.999671  0.000790451 -2.75238e-05 
         850      10.9623     0.999671  0.000790456 -2.74899e-05 
         850      11.0641     0.999672  0.000790455 -2.74598e-05 
         850      11.1663     0.999672  0.000790442 -2.74331e-05 
         850       11.269     0.999673  0.000790415  -2.7409e-05 
         850      11.3721     0.999673  0.000790372 -2.73859e-05 
         850      11.4757     0.999674  0.000790316 -2.73614e-05 
         850      11.5798     0.999674   0.00079026 -2.73319e-05 
         850      11.6844     0.999675  0.000790225  -2.7293e-05 
         850      11.7894     0.999675  0.000790254 -2.72387e-05 
         850       11.895     0.999675  0.000790411 -2.71614e-05 
         850      12.0009     0.999676  0.000790402 -2.71484e-05 
         850      12.1073     0.999677  0.000790296 -2.71594e-05 
         850      12.2142     0.999677  0.000790257 -2.71485e-05 
         850      12.3216     0.999678  0.000790261 -2.71215e-05 
         850      12.4294     0.999678  0.000790289 -2.70829e-05 
         850      12.5378     0.999679   0.00079033 -2.70354e-05 
         850      12.6465      0.99968  0.000790381   -2.698e-05 
         850      12.7558      0.99968  0.000790452 -2.69158e-05 
         850      12.8656     0.999681  0.000790548 -2.68653e-05 
         850      12.9757     0.999681  0.000790569 -2.69282e-05 
         850      13.0864     0.999682  0.000790586 -2.69518e-05 
         850      13.1975     0.999682  0.000790582 -2.69458e-05 
         850      13.3092     0.999683  0.000790553 -2.69172e-05 
         850      13.4212     0.999683  0.000790504 -2.68708e-05 
         850      13.5338     0.999684  0.000790439 -2.68093e-05 
         850      13.6468     0.999684  0.000790367 -2.67336e-05 
         850      13.7603     0.999685  0.000790291 -2.66438e-05 
         850      13.8743     0.999685  0.000790212 -2.65381e-05 
         850      13.9886     0.999685  0.000790125 -2.64146e-05 
         850      14.1036     0.999685  0.000790295 -2.64286e-05 
         850      14.2189     0.999686  0.000790504 -2.64734e-05 
         850      14.3348     0.999687  0.000790624 -2.64793e-05 
         850       14.451     0.999688  0.000790672  -2.6457e-05 
         850      14.5678     0.999689  0.000790667 -2.64155e-05 
         850      14.6851     0.999689  0.000790627  -2.6362e-05 
         850      14.8028      0.99969  0.000790566  -2.6302e-05 
         850       14.921     0.999691    0.0007905 -2.62398e-05 
         850      15.0396     0.999691  0.000790437 -2.61785e-05 
         850      15.1588     0.999692  0.000790387 -2.61201e-05 
         850      15.2783     0.999692  0.000790355 -2.60661e-05 
         850      15.3984     0.999693  0.000790342  -2.6017e-05 
         850       15.519     0.999693  0.000790349 -2.59731e-05 
         850        15.64     0.999694  0.000790374  -2.5934e-05 
         850      15.7615     0.999694  0.000790412 -2.58992e-05 
         850      15.8834     0.999695   0.00079046 -2.58678e-05 
         850      16.0058     0.999695  0.000790511  -2.5839e-05 
         850      16.1286     0.999696  0.000790561 -2.58115e-05 
         850       16.252     0.999696  0.000790604 -2.57844e-05 
         850      16.3759     0.999697  0.000790635 -2.57566e-05 
         850      16.5002     0.999698  0.000790654 -2.57271e-05 
         850       16.625     0.999698  0.000790658 -2.56948e-05 
         850      16.7501     0.999699  0.000790648 -2.56591e-05 
         850      16.8759       0.9997  0.000790626 -2.56192e-05 
         850       17.002       0.9997  0.000790598 -2.55746e-05 
         850      17.1287     0.999701  0.000790567 -2.55251e-05 
         850      17.2557     0.999702   0.00079054 -2.54709e-05 
         850      17.3834     0.999702  0.000790523 -2.54122e-05 
         850      17.5115     0.999703  0.000790519 -2.53501e-05 
         850      17.6399     0.999704   0.00079053 -2.52862e-05 
         850       17.769     0.999704  0.000790553 -2.52226e-05 
         850      17.8984     0.999705  0.000790577 -2.51628e-05 
         850      18.0284     0.999705  0.000790583  -2.5111e-05 
         850      18.1587     0.999706  0.000790539 -2.50732e-05 
         850      18.2896     0.999706  0.000790398 -2.50572e-05 
         850       18.421     0.999707  0.000790189 -2.50497e-05 
         850      18.5528     0.999708   0.00079037 -2.49523e-05 
         850      18.6851     0.999708  0.000790487 -2.48825e-05 
         850      18.8178     0.999709  0.000790549 -2.48322e-05 
         850      18.9511      0.99971  0.000790568 -2.47943e-05 
         850      19.0847     0.999711  0.000790559 -2.47634e-05 
         850      19.2189     0.999711  0.000790536 -2.47351e-05 
         850      19.3535     0.999712  0.000790511 -2.47061e-05 
         850      19.4886     0.999713  0.000790493 -2.46741e-05 
         850      19.6242     0.999713  0.000790489 -2.46377e-05 
         850      19.7602     0.999714  0.000790502  -2.4596e-05 
         850      19.8968     0.999714   0.00079053 -2.45489e-05 
         850      20.0337     0.999715  0.000790571 -2.44969e-05 
         850      20.1712     0.999716   0.00079062 -2.44407e-05 
         850      20.3091     0.999716   0.00079067 -2.43818e-05 
         850      20.4475     0.999717  0.000790717 -2.43214e-05 
         850      20.5864     0.999718  0.000790753 -2.42613e-05 
         850      20.7257     0.999718  0.000790774 -2.42032e-05 
         850      20.8655     0.999719  0.000790778 -2.41488e-05 
         850      21.0058      0.99972  0.000790765 -2.40995e-05 
         850      21.1465     0.999721  0.000790736 -2.40565e-05 
         850      21.2877     0.999722  0.000790696 -2.40207e-05 
         850      21.4294     0.999723  0.000790649 -2.39921e-05 
         850      21.5716     0.999723  0.000790604 -2.39701e-05 
         850      21.7142     0.999724  0.000790565 -2.39531e-05 
         850      21.8573     0.999725  0.000790538 -2.39381e-05 
         850      22.0008     0.999725  0.000790524 -2.39205e-05 
         850      22.1449     0.999726   0.00079052 -2.38942e-05 
         850      22.2893     0.999727  0.000790514 -2.38504e-05 
         850      22.4344     0.999727  0.000790486 -2.37781e-05 
         850      22.5797     0.999727  0.000790407 -2.36629e-05 
         850      22.7257     0.999728  0.000790431 -2.36008e-05 
         850      22.8721     0.999729  0.000790528 -2.35592e-05 
         850      23.0189      0.99973  0.000790658 -2.35066e-05 
         850      23.1663     0.999731   0.00079082 -2.34481e-05 
         850       23.314     0.999732  0.000790988  -2.3388e-05 
         850      23.4623     0.999733  0.000791114 -2.33288e-05 
         850       23.611     0.999734  0.000791139 -2.32714e-05 
         850      23.7602     0.999735  0.000791016 -2.32149e-05 
         850        23.91     0.999736  0.000790752  -2.3157e-05 
         850        24.06     0.999736  0.000790467 -2.30944e-05 
         850      24.2107     0.999737  0.000790475 -2.30239e-05 
         850      24.3617     0.999737  0.000791402 -2.29436e-05 
         850      24.5133     0.999738  0.000791578 -2.28956e-05 
         850      24.6653     0.999739  0.000790795 -2.28753e-05 
         850      24.8178      0.99974  0.000790467 -2.28524e-05 
         850      24.9708      0.99974  0.000790417 -2.28264e-05 
         850      25.1242     0.999741  0.000790517 -2.27971e-05 
         850      25.2781     0.999742  0.000790676 -2.27644e-05 
         850      25.4324     0.999742  0.000790831 -2.27285e-05 
         850      25.5873     0.999743  0.000790948 -2.26894e-05 
         850      25.7426     0.999744  0.000791007 -2.26474e-05 
         850      25.8984     0.999745  0.000791007 -2.26025e-05 
         850      26.0546     0.999746  0.000790953 -2.25548e-05 
         850      26.2114     0.999747  0.000790858 -2.25039e-05 
         850      26.3686     0.999748   0.00079074 -2.24494e-05 
         850      26.5262     0.999749  0.000790616 -2.23907e-05 
         850      26.6844      0.99975  0.000790502 -2.23268e-05 
         850      26.8429     0.999751  0.000790414 -2.22567e-05 
         850       27.002     0.999752  0.000790363 -2.21788e-05 
         850      27.1615     0.999753  0.000790356 -2.20918e-05 
         850      27.3216     0.999754  0.000790396 -2.19937e-05 
         850      27.4821     0.999755  0.000790465 -2.18925e-05 
         850       27.643     0.999756  0.000790411 -2.19116e-05 
         850      27.8044     0.999756  0.000790449 -2.19079e-05 
         850      27.9663     0.999757  0.000790551  -2.1886e-05 
         850      28.1287     0.999758  0.000790688 -2.18498e-05 
         850      28.2914     0.999759  0.000790836 -2.18028e-05 
         850      28.4548     0.999759  0.000790975 -2.17479e-05 
         850      28.6185      0.99976  0.000791087 -2.16878e-05 
         850      28.7828     0.999761  0.000791159 -2.16243e-05 
         850      28.9475     0.999761  0.000791184 -2.15591e-05 
         850      29.1126     0.999762   0.00079116 -2.14934e-05 
         850      29.2784     0.999763  0.000791088  -2.1428e-05 
         850      29.4444     0.999764  0.000790975 -2.13634e-05 
         850       29.611     0.999764  0.000790832 -2.12998e-05 
         850       29.778     0.999765  0.000790674 -2.12375e-05 
         850      29.9456     0.999766  0.000790515 -2.11761e-05 
         850      30.1137     0.999767  0.000790374 -2.11158e-05 
         850      30.2821     0.999768  0.000790267 -2.10562e-05 
         850      30.4511     0.999769  0.000790207 -2.09973e-05 
         850      30.6204     0.999771  0.000790206 -2.09389e-05 
         850      30.7903     0.999772  0.000790268 -2.08811e-05 
         850      30.9606     0.999773  0.000790391 -2.08239e-05 
         850      31.1315     0.999774  0.000790567 -2.07675e-05 
         850      31.3028     0.999775  0.000790776 -2.07124e-05 
         850      31.4745     0.999776  0.000790995 -2.06588e-05 
         850      31.6468     0.999777  0.000791192 -2.06072e-05 
         850      31.8194     0.999778  0.000791333 -2.05578e-05 
         850      31.9926     0.999779  0.000791387 -2.05107e-05 
         850      32.1662     0.999779  0.000791329 -2.04657e-05 
         850      32.3404      0.99978  0.000791151 -2.04219e-05 
         850      32.5149     0.999781  0.000790879 -2.03777e-05 
         850        32.69     0.999782  0.000790579 -2.03303e-05 
         850      32.8655     0.999782  0.000790386 -2.02757e-05 
         850      33.0414     0.999783  0.000790523  -2.0208e-05 
         850       33.218     0.999784  0.000791334 -2.01189e-05 
         850      33.3948     0.999785  0.000791635 -2.00431e-05 
         850      33.5723     0.999787  0.000790714 -1.99931e-05 
         850        33.75     0.999788  0.000790324 -1.99199e-05 
         850      33.9284      0.99979  0.000790272 -1.98314e-05 
         850      34.1073     0.999791  0.000790412 -1.97342e-05 
         850      34.2865     0.999791  0.000790641 -1.96339e-05 
         850      34.4663     0.999792  0.000790884 -1.95347e-05 
         850      34.6465     0.999793  0.000791096 -1.94398e-05 
         850      34.8272     0.999794   0.00079125 -1.93514e-05 
         850      35.0083     0.999794  0.000791336 -1.92712e-05 
         850        35.19     0.999795  0.000791355 -1.91995e-05 
         850      35.3721     0.999796  0.000791316 -1.91365e-05 
         850      35.5546     0.999797  0.000791232 -1.90815e-05 
         850      35.7377     0.999798   0.00079112 -1.90335e-05 
         850      35.9211     0.999799  0.000790998 -1.89911e-05 
         850      36.1052       0.9998  0.000790882 -1.89525e-05 
         850      36.2895     0.999801  0.000790785 -1.89161e-05 
         850      36.4745     0.999803  0.000790716 -1.88801e-05 
         850      36.6598     0.999804  0.000790681 -1.88429e-05 
         850      36.8457     0.999805  0.000790677  -1.8803e-05 
         850      37.0321     0.999806  0.000790694 -1.87596e-05 
         850      37.2188     0.999807  0.000790712 -1.87121e-05 
         850      37.4062     0.999808  0.000790702 -1.86609e-05 
         850      37.5938     0.999809  0.000790616 -1.86071e-05 
         850      37.7821      0.99981  0.000790391 -1.85527e-05 
         850      37.9707     0.999811  0.000790382 -1.84732e-05 
         850      38.1599     0.999812  0.000790618  -1.8378e-05 
         850      38.3496     0.999813  0.000790807 -1.82889e-05 
         850      38.5396     0.999814  0.000790955 -1.82054e-05 
         850      38.7302     0.999815  0.000791066 -1.81266e-05 
         850      38.9211     0.999816  0.000791145 -1.80522e-05 
         850      39.1127     0.999817  0.000791192 -1.79814e-05 
         850      39.3046     0.999818  0.000791213 -1.79139e-05 
         850      39.4971     0.999819  0.000791208 -1.78491e-05 
         850      39.6899      0.99982   0.00079118 -1.77867e-05 
         850      39.8833     0.999821  0.000791132 -1.77263e-05 
         850      40.0772     0.999822  0.000791066 -1.76678e-05 
         850      40.2714     0.999823  0.000790987 -1.76109e-05 
         850      40.4663     0.999824  0.000790897 -1.75555e-05 
         850      40.6615     0.999826  0.000790802 -1.75015e-05 
         850      40.8573     0.999827  0.000790708 -1.74488e-05 
         850      41.0534     0.999828  0.000790621 -1.73975e-05 
         850      41.2501     0.999829  0.000790548 -1.73473e-05 
         850      41.4473     0.999831  0.000790497 -1.72983e-05 
         850      41.6448     0.999832  0.000790474 -1.72503e-05 
         850      41.8429     0.999833  0.000790487 -1.72031e-05 
         850      42.0414     0.999834  0.000790538 -1.71564e-05 
         850      42.2405     0.999836  0.000790631 -1.71097e-05 
         850      42.4399     0.999837  0.000790761 -1.70624e-05 
         850      42.6399     0.999838  0.000790919 -1.70137e-05 
         850      42.8404     0.999839  0.000791089 -1.69624e-05 
         850      43.0412      0.99984  0.000791239 -1.69073e-05 
         850      43.2426     0.999841  0.000791328 -1.68464e-05 
         850      43.4444     0.999842  0.000791292 -1.67778e-05 
         850      43.6467     0.999842  0.000791048 -1.66987e-05 
         850      43.8494     0.999843  0.000790678 -1.66208e-05 
         850      44.0527     0.999845  0.000791006 -1.65923e-05 
         850      44.2563     0.999847  0.000791158 -1.65384e-05 
         850      44.4606     0.999849   0.00079119 -1.64661e-05 
         850      44.6653      0.99985  0.000791148 -1.63812e-05 
         850      44.8704     0.999851  0.000791067 -1.62887e-05 
         850       45.076     0.999852   0.00079097 -1.61923e-05 
         850       45.282     0.999853  0.000790875 -1.60953e-05 
         850      45.4886     0.999854  0.000790794 -1.59999e-05 
         850      45.6955     0.999855  0.000790731 -1.59077e-05 
         850       45.903     0.999856  0.000790691 -1.58198e-05 
         850      46.1111     0.999857  0.000790672 -1.57368e-05 
         850      46.3194     0.999858  0.000790673 -1.56589e-05 
         850      46.5283     0.999859   0.00079069 -1.55859e-05 
         850      46.7376      0.99986  0.000790718 -1.55173e-05 
         850      46.9475     0.999862  0.000790754 -1.54523e-05 
         850      47.1577     0.999863  0.000790794 -1.53903e-05 
         850      47.3685     0.999864  0.000790832 -1.53301e-05 
         850      47.5798     0.999865  0.000790867 -1.52707e-05 
         850      47.7914     0.999866  0.000790896 -1.52112e-05 
         850      48.0037     0.999867  0.000790918 -1.51503e-05 