Variables = x, y, u, v, p

Zone, I=416, F=POINT
         -50            0            0            0     -5.50694 
         -50     0.013333 -1.06955e-05  8.42076e-09     -5.50694 
         -50     0.053333 -2.89716e-05 -2.43659e-08     -5.50694 
         -50         0.12 -4.91276e-05 -3.74038e-07     -5.50694 
         -50     0.213332 -5.99285e-05 -1.63678e-06     -5.50694 
         -50     0.333332 -6.37594e-05 -4.02215e-06     -5.50693 
         -50         0.48 -6.72174e-05 -6.61938e-06     -5.50692 
         -50     0.653331 -7.17038e-05 -1.00654e-05     -5.50691 
         -50     0.853332 -7.04534e-05 -1.35822e-05     -5.50688 
         -50         1.08 -5.89824e-05 -1.64833e-05     -5.50684 
         -50      1.33333 -4.10644e-05 -1.88399e-05     -5.50679 
         -50      1.61333 -2.16672e-05 -2.00165e-05     -5.50671 
         -50         1.92  -6.2065e-06 -1.98137e-05     -5.50661 
         -50      2.25333  1.28919e-05 -1.72455e-05     -5.50649 
         -50      2.61333  2.66673e-05 -1.66473e-05     -5.50632 
         -50            3  2.45998e-05 -2.14986e-05     -5.50612 
         -25            0           -0           -0     -5.28729 
         -25     0.013333 -4.64041e-06 -7.06797e-09     -5.28729 
         -25     0.053333 -9.01916e-06  -1.0554e-07     -5.28729 
         -25         0.12 -1.10655e-05 -5.05305e-07     -5.28729 
         -25     0.213332 -5.63646e-06 -1.42421e-06     -5.28729 
         -25     0.333332  3.77633e-06 -2.98642e-06     -5.28729 
         -25         0.48  1.13931e-05 -5.26136e-06     -5.28729 
         -25     0.653331  1.33816e-05 -7.75098e-06     -5.28728 
         -25     0.853332  1.14661e-05 -1.05985e-05     -5.28727 
         -25         1.08  9.87644e-06 -1.33171e-05     -5.28726 
         -25      1.33333  9.09591e-06 -1.56976e-05     -5.28724 
         -25      1.61333  7.36214e-06 -1.71843e-05     -5.28721 
         -25         1.92  3.50536e-06 -1.83493e-05     -5.28718 
         -25      2.25333    2.551e-06 -1.71525e-05     -5.28713 
         -25      2.61333  1.10392e-05 -1.29513e-05     -5.28707 
         -25            3  2.36766e-05 -8.94866e-06       -5.287 
           0            0 -4.64903e-20  1.98125e-20     -5.10644 
           0     0.013333  1.77772e-05  2.56689e-06     -5.10706 
           0     0.053333   1.1936e-05 -3.04925e-06     -5.10744 
           0         0.12  1.50119e-05 -1.27951e-06     -5.10784 
           0     0.213332  1.61461e-05 -1.65304e-06     -5.10827 
           0     0.333332  1.36102e-05 -1.35606e-06     -5.10869 
           0         0.48   1.0615e-05 -1.06617e-06     -5.10912 
           0     0.653331  1.00149e-05  -4.3732e-07     -5.10954 
           0     0.853332  1.21777e-05  4.76585e-07     -5.10994 
           0         1.08  1.40169e-05   1.5035e-06     -5.11034 
           0      1.33333  1.40639e-05  2.48296e-06     -5.11071 
           0      1.61333  1.46259e-05  3.36067e-06     -5.11107 
           0         1.92  1.75167e-05  4.14817e-06     -5.11141 
           0      2.25333  1.72431e-05  4.44043e-06     -5.11173 
           0      2.61333  1.10428e-05  4.31062e-06     -5.11203 
           0            3  2.16641e-06  2.44201e-06     -5.11231 
          20            0 -0.000104784  3.30631e-05     -4.99925 
          20     0.013333 -0.000101015  3.27471e-05     -4.99925 
          20     0.053333 -8.99292e-05  3.16758e-05     -4.99925 
          20         0.12 -7.25303e-05  2.94604e-05     -4.99924 
          20     0.213332 -5.15551e-05  2.54163e-05     -4.99924 
          20     0.333332 -3.17489e-05  1.86079e-05     -4.99924 
          20         0.48 -2.17986e-05  8.08084e-06     -4.99924 
          20     0.653331 -1.89859e-05  -6.1106e-06     -4.99923 
          20     0.853332 -1.34513e-05 -2.26281e-05     -4.99922 
          20         1.08  3.80789e-06 -3.92311e-05     -4.99921 
          20      1.33333    3.167e-05 -5.40187e-05      -4.9992 
          20      1.61333   6.1453e-05 -6.60078e-05     -4.99918 
          20         1.92  8.72231e-05 -7.40629e-05     -4.99916 
          20      2.25333  0.000103531 -7.80974e-05     -4.99914 
          20      2.61333  0.000107673  -7.7957e-05     -4.99911 
          20            3  0.000109009 -7.18628e-05     -4.99908 
          40            0 -0.000187429  0.000709868     -4.89355 
          40     0.013333 -0.000254045  0.000715553     -4.89355 
          40     0.053333 -0.000458818  0.000732795     -4.89354 
          40         0.12 -0.000812491  0.000762516     -4.89352 
          40     0.213332   -0.0013133  0.000807637     -4.89349 
          40     0.333332  -0.00190251  0.000875091     -4.89345 
          40         0.48  -0.00241621  0.000975782     -4.89341 
          40     0.653331  -0.00264304   0.00111616     -4.89337 
          40     0.853332  -0.00252375   0.00128317     -4.89333 
          40         1.08  -0.00219483   0.00144343     -4.89328 
          40      1.33333   -0.0017809    0.0015629     -4.89324 
          40      1.61333  -0.00132869   0.00161949      -4.8932 
          40         1.92 -0.000879512   0.00160372     -4.89315 
          40      2.25333 -0.000485277   0.00152016     -4.89308 
          40      2.61333 -0.000189436   0.00138638       -4.893 
          40            3 -8.45771e-06   0.00122547     -4.89289 
          60            0           -0           -0     -4.78488 
          60     0.013333 -4.16249e-05  1.47741e-06     -4.78488 
          60     0.053333  -0.00048648   2.1128e-05     -4.78488 
          60         0.12  -0.00168874  8.77517e-05     -4.78487 
          60     0.213332  -0.00323845  0.000209731     -4.78488 
          60     0.333332  -0.00438307  0.000367348     -4.78488 
          60         0.48  -0.00478208   0.00054644     -4.78488 
          60     0.653331  -0.00453372  0.000759424     -4.78488 
          60     0.853332  -0.00408702   0.00100758     -4.78488 
          60         1.08  -0.00352161   0.00126142     -4.78487 
          60      1.33333   -0.0025302   0.00149363     -4.78484 
          60      1.61333  -0.00139229   0.00166226     -4.78479 
          60         1.92 -0.000329333   0.00173825     -4.78471 
          60      2.25333  0.000519096   0.00171887     -4.78462 
          60      2.61333   0.00105537   0.00161534      -4.7845 
          60            3   0.00127239   0.00145959     -4.78438 
          80            0  9.90382e-20 -2.89647e-25     -4.67916 
          80     0.013333  0.000115671  1.45069e-06     -4.67916 
          80     0.053333  4.70342e-05  2.13699e-05     -4.67916 
          80         0.12 -0.000856112  9.30218e-05     -4.67916 
          80     0.213332  -0.00249334  0.000235561     -4.67916 
          80     0.333332  -0.00409155  0.000436639     -4.67916 
          80         0.48  -0.00500127  0.000675064     -4.67916 
          80     0.653331  -0.00486066  0.000952547     -4.67916 
          80     0.853332  -0.00360922   0.00128077     -4.67916 
          80         1.08  -0.00204782   0.00163117     -4.67915 
          80      1.33333  -0.00105159   0.00194843     -4.67913 
          80      1.61333 -0.000492554   0.00219142     -4.67909 
          80         1.92  7.45019e-06   0.00233336     -4.67904 
          80      2.25333  0.000455149    0.0023611     -4.67897 
          80      2.61333  0.000764579   0.00228129     -4.67889 
          80            3  0.000897526   0.00212343      -4.6788 
         100            0           -0           -0     -4.57484 
         100     0.013333  0.000267196   4.3956e-07     -4.57484 
         100     0.053333  0.000867357  6.56735e-06     -4.57484 
         100         0.12   0.00138045  2.94495e-05     -4.57484 
         100     0.213332   0.00154829  7.87624e-05     -4.57484 
         100     0.333332    0.0014126  0.000158929     -4.57484 
         100         0.48   0.00123152  0.000273691     -4.57484 
         100     0.653331   0.00139882  0.000431428     -4.57484 
         100     0.853332    0.0020849  0.000630614     -4.57484 
         100         1.08   0.00252018  0.000825053     -4.57484 
         100      1.33333   0.00202164  0.000959538     -4.57484 
         100      1.61333   0.00130517   0.00104157     -4.57484 
         100         1.92  0.000760281   0.00108765     -4.57484 
         100      2.25333  0.000290185    0.0010907     -4.57484 
         100      2.61333  -0.00010171   0.00105269     -4.57485 
         100            3 -0.000349883  0.000982611     -4.57486 
         150            0  1.35176e-19 -5.86629e-26     -4.32339 
         150     0.013333  0.000185459  6.75762e-07     -4.32339 
         150     0.053333  0.000492324  1.02122e-05     -4.32339 
         150         0.12   0.00046455  4.61067e-05     -4.32339 
         150     0.213332  3.79658e-07   0.00012185     -4.32339 
         150     0.333332 -0.000574865   0.00023597     -4.32339 
         150         0.48 -0.000919573  0.000378027     -4.32339 
         150     0.653331  -0.00090137  0.000541468     -4.32339 
         150     0.853332 -0.000557008  0.000721644     -4.32339 
         150         1.08 -0.000166463  0.000899609     -4.32339 
         150      1.33333 -2.13784e-05   0.00104777     -4.32338 
         150      1.61333 -3.07931e-05   0.00115403     -4.32338 
         150         1.92  4.88168e-06    0.0012164     -4.32337 
         150      2.25333  6.45181e-05   0.00122879     -4.32335 
         150      2.61333  0.000104237    0.0011911     -4.32334 
         150            3  0.000119394   0.00111168     -4.32332 
         200            0           -0           -0     -4.07676 
         200     0.013333 -0.000377922  1.48694e-06     -4.07676 
         200     0.053333  -0.00168204  2.10526e-05     -4.07676 
         200         0.12  -0.00391333  8.61434e-05     -4.07676 
         200     0.213332  -0.00627835  0.000200917     -4.07676 
         200     0.333332  -0.00776245   0.00033617     -4.07676 
         200         0.48  -0.00809512  0.000460717     -4.07677 
         200     0.653331  -0.00761518  0.000571206     -4.07677 
         200     0.853332  -0.00658993  0.000683967     -4.07677 
         200         1.08  -0.00526078   0.00079918     -4.07676 
         200      1.33333  -0.00396075  0.000898636     -4.07674 
         200      1.61333  -0.00271472  0.000967992     -4.07669 
         200         1.92  -0.00143865   0.00100239     -4.07661 
         200      2.25333 -0.000217557  0.000999885     -4.07651 
         200      2.61333  0.000812074  0.000958089     -4.07637 
         200            3   0.00152399   0.00088496     -4.07622 
         250            0           -0           -0     -3.83052 
         250     0.013333 -0.000913675  8.05512e-07     -3.83052 
         250     0.053333   -0.0033971  9.93783e-06     -3.83052 
         250         0.12  -0.00654238    3.122e-05     -3.83052 
         250     0.213332  -0.00902189  4.33661e-05     -3.83053 
         250     0.333332   -0.0100952  1.06794e-05     -3.83053 
         250         0.48   -0.0101017  -8.5356e-05     -3.83053 
         250     0.653331  -0.00974684  -0.00023309     -3.83054 
         250     0.853332   -0.0091945 -0.000396621     -3.83054 
         250         1.08  -0.00805764  -0.00053458     -3.83054 
         250      1.33333  -0.00633133  -0.00062861     -3.83051 
         250      1.61333  -0.00452186 -0.000694336     -3.83046 
         250         1.92  -0.00271991  -0.00073902     -3.83037 
         250      2.25333  -0.00095193  -0.00075346     -3.83024 
         250      2.61333   0.00061683 -0.000740061     -3.83008 
         250            3    0.0017859 -0.000700512     -3.82988 
         300            0 -2.61986e-20  2.40929e-26     -3.58375 
         300     0.013333 -9.70199e-05  1.44842e-06     -3.58375 
         300     0.053333 -0.000733622   2.1276e-05     -3.58375 
         300         0.12  -0.00239344  9.26704e-05     -3.58375 
         300     0.213332    -0.004782  0.000235806     -3.58375 
         300     0.333332  -0.00692375  0.000438421     -3.58375 
         300         0.48  -0.00811214   0.00067047     -3.58375 
         300     0.653331  -0.00831618  0.000913288     -3.58375 
         300     0.853332   -0.0077541   0.00116741     -3.58376 
         300         1.08  -0.00664919    0.0014323     -3.58375 
         300      1.33333  -0.00534647   0.00169053     -3.58374 
         300      1.61333  -0.00407113   0.00191583     -3.58371 
         300         1.92  -0.00274964   0.00208905     -3.58366 
         300      2.25333  -0.00139105   0.00219546     -3.58359 
         300      2.61333 -0.000119715   0.00222388     -3.58349 
         300            3  0.000905834   0.00217453     -3.58337 
         350            0            0            0     -3.33473 
         350     0.013333  0.000731579  1.02803e-07     -3.33473 
         350     0.053333    0.0025804  2.51953e-06     -3.33473 
         350         0.12   0.00464583  1.76694e-05     -3.33473 
         350     0.213332   0.00600626  6.64708e-05     -3.33473 
         350     0.333332   0.00634087  0.000169712     -3.33473 
         350         0.48   0.00601731  0.000335059     -3.33473 
         350     0.653331    0.0056026  0.000556303     -3.33472 
         350     0.853332   0.00538295  0.000818613     -3.33472 
         350         1.08   0.00518604   0.00109786     -3.33473 
         350      1.33333   0.00463053   0.00136222     -3.33474 
         350      1.61333   0.00369679   0.00159008     -3.33475 
         350         1.92   0.00265159   0.00177387     -3.33479 
         350      2.25333   0.00156333    0.0018999     -3.33484 
         350      2.61333  0.000502831   0.00195849      -3.3349 
         350            3 -0.000410351   0.00194638     -3.33499 
         400            0            0            0     -3.09284 
         400     0.013333 -0.000807798 -3.61349e-07     -3.09284 
         400     0.053333  -0.00275087 -6.62827e-06     -3.09284 
         400         0.12  -0.00466366 -3.78116e-05     -3.09285 
         400     0.213332  -0.00546994 -0.000125322     -3.09285 
         400     0.333332  -0.00500185 -0.000294949     -3.09285 
         400         0.48   -0.0039594  -0.00054895     -3.09285 
         400     0.653331  -0.00311943 -0.000869154     -3.09285 
         400     0.853332  -0.00275101  -0.00123038     -3.09285 
         400         1.08   -0.0026058    -0.001605     -3.09285 
         400      1.33333   -0.0023103  -0.00196494     -3.09284 
         400      1.61333  -0.00180393  -0.00228962     -3.09283 
         400         1.92  -0.00123634  -0.00256341      -3.0928 
         400      2.25333 -0.000654538  -0.00276562     -3.09276 
         400      2.61333 -9.15182e-05  -0.00287887     -3.09271 
         400            3  0.000397602  -0.00289415     -3.09264 
         450            0  1.39953e-19  1.84084e-27     -2.84812 
         450     0.013333  0.000373485  1.08968e-06     -2.84812 
         450     0.053333   0.00102828  1.66052e-05     -2.84812 
         450         0.12   0.00104259  7.65264e-05     -2.84812 
         450     0.213332  1.72378e-05  0.000209005     -2.84812 
         450     0.333332  -0.00155641  0.000420286     -2.84812 
         450         0.48  -0.00288353  0.000694718     -2.84812 
         450     0.653331  -0.00352858    0.0010136     -2.84812 
         450     0.853332   -0.0034442   0.00136788     -2.84812 
         450         1.08  -0.00280478   0.00174959     -2.84812 
         450      1.33333  -0.00203434   0.00213522     -2.84812 
         450      1.61333  -0.00149583   0.00249077     -2.84811 
         450         1.92  -0.00108042   0.00279191      -2.8481 
         450      2.25333 -0.000655298   0.00301967     -2.84808 
         450      2.61333 -0.000222652   0.00315553     -2.84804 
         450            3  0.000156949   0.00318772       -2.848 
         500            0            0            0     -2.60242 
         500     0.013333 -0.000117005  -8.7291e-07     -2.60242 
         500     0.053333 -0.000152471 -1.31852e-05     -2.60242 
         500         0.12  0.000457021 -6.00317e-05     -2.60242 
         500     0.213332   0.00183079 -0.000161611     -2.60242 
         500     0.333332   0.00343139 -0.000319447     -2.60242 
         500         0.48   0.00459405 -0.000517132     -2.60242 
         500     0.653331   0.00505724 -0.000736296     -2.60241 
         500     0.853332   0.00492301 -0.000968008     -2.60241 
         500         1.08   0.00438625  -0.00120908     -2.60241 
         500      1.33333   0.00366248  -0.00145152     -2.60241 
         500      1.61333   0.00294614  -0.00167965     -2.60242 
         500         1.92   0.00226201  -0.00187685     -2.60244 
         500      2.25333   0.00154212  -0.00202948     -2.60247 
         500      2.61333  0.000796022  -0.00212503      -2.6025 
         500            3  9.86926e-05  -0.00215476     -2.60256 
         550            0           -0           -0     -2.36323 
         550     0.013333 -0.000253922   1.3147e-06     -2.36323 
         550     0.053333  -0.00127934  1.91197e-05     -2.36323 
         550         0.12   -0.0033802  8.21101e-05     -2.36323 
         550     0.213332  -0.00611743  0.000205476     -2.36323 
         550     0.333332  -0.00846579  0.000374834     -2.36324 
         550         0.48  -0.00974096  0.000561227     -2.36324 
         550     0.653331  -0.00999331  0.000749068     -2.36324 
         550     0.853332  -0.00950542  0.000945374     -2.36325 
         550         1.08  -0.00839738   0.00116388     -2.36325 
         550      1.33333  -0.00692112    0.0013988     -2.36324 
         550      1.61333  -0.00551203    0.0016232     -2.36322 
         550         1.92  -0.00421608   0.00181524     -2.36318 
         550      2.25333  -0.00286544   0.00196487     -2.36311 
         550      2.61333  -0.00145822   0.00206172     -2.36302 
         550            3 -0.000127551   0.00209672      -2.3629 
         600            0            0            0     -2.11709 
         600     0.013333  0.000456668 -2.24388e-07     -2.11709 
         600     0.053333   0.00167349 -2.46192e-06     -2.11709 
         600         0.12   0.00315056 -5.28233e-06     -2.11709 
         600     0.213332   0.00423118  3.34859e-06     -2.11709 
         600     0.333332   0.00458988  3.96458e-05     -2.11709 
         600         0.48   0.00446652  0.000109478     -2.11709 
         600     0.653331    0.0043046  0.000204103     -2.11709 
         600     0.853332   0.00426975  0.000306144     -2.11708 
         600         1.08   0.00411344  0.000393464     -2.11708 
         600      1.33333   0.00352876  0.000448211     -2.11708 
         600      1.61333   0.00267779  0.000472824     -2.11709 
         600         1.92   0.00193219  0.000483637     -2.11712 
         600      2.25333   0.00124454  0.000484247     -2.11715 
         600      2.61333  0.000557222  0.000473077      -2.1172 
         600            3 -9.13253e-05  0.000448703     -2.11727 
         650            0           -0           -0     -1.87714 
         650     0.013333 -0.000382467 -8.89841e-07     -1.87714 
         650     0.053333  -0.00107854 -1.38689e-05     -1.87714 
         650         0.12  -0.00116161 -6.59143e-05     -1.87714 
         650     0.213332 -0.000126355 -0.000185853     -1.87714 
         650     0.333332   0.00159787 -0.000383753     -1.87714 
         650         0.48   0.00311664 -0.000644956     -1.87714 
         650     0.653331   0.00386407 -0.000946166     -1.87714 
         650     0.853332   0.00380535    -0.001272     -1.87714 
         650         1.08   0.00321068  -0.00161228     -1.87714 
         650      1.33333   0.00252722  -0.00194828     -1.87714 
         650      1.61333   0.00209009  -0.00225565     -1.87714 
         650         1.92   0.00176954  -0.00252103     -1.87715 
         650      2.25333   0.00139512  -0.00273468     -1.87716 
         650      2.61333  0.000953021  -0.00288294     -1.87717 
         650            3  0.000504186  -0.00295209     -1.87719 
         700            0            0            0     -1.63787 
         700     0.013333  0.000925991  9.29649e-07     -1.63787 
         700     0.053333   0.00302234  1.50415e-05     -1.63787 
         700         0.12   0.00471463  7.52697e-05     -1.63787 
         700     0.213332   0.00475023  0.000224733     -1.63787 
         700     0.333332   0.00317727  0.000491201     -1.63787 
         700         0.48   0.00110768  0.000869544     -1.63787 
         700     0.653331 -0.000375435   0.00133187     -1.63787 
         700     0.853332 -0.000883961   0.00184954     -1.63787 
         700         1.08 -0.000644241   0.00239897     -1.63787 
         700      1.33333 -0.000214512   0.00295196     -1.63787 
         700      1.61333 -5.84485e-05   0.00347541     -1.63787 
         700         1.92 -0.000135711   0.00394484     -1.63788 
         700      2.25333 -0.000226732   0.00434089     -1.63789 
         700      2.61333  -0.00027044   0.00463896     -1.63791 
         700            3  -0.00030062   0.00481486     -1.63793 
         750            0           -0           -0     -1.40362 
         750     0.013333  -0.00159723  1.59763e-07     -1.40362 
         750     0.053333  -0.00577803  5.19781e-07     -1.40362 
         750         0.12    -0.010829 -1.03382e-05     -1.40362 
         750     0.213332    -0.014631 -6.86923e-05     -1.40362 
         750     0.333332   -0.0160027 -0.000222036     -1.40362 
         750         0.48   -0.0154016 -0.000496298     -1.40363 
         750     0.653331   -0.0141634 -0.000880888     -1.40363 
         750     0.853332   -0.0132315  -0.00134124     -1.40364 
         750         1.08    -0.012586  -0.00183289     -1.40364 
         750      1.33333   -0.0116062   -0.0023116     -1.40363 
         750      1.61333   -0.0099859  -0.00274843     -1.40361 
         750         1.92  -0.00807548  -0.00313809     -1.40357 
         750      2.25333  -0.00607159  -0.00347253      -1.4035 
         750      2.61333  -0.00399084  -0.00373257     -1.40339 
         750            3   -0.0018714  -0.00389733     -1.40324 
         800            0  2.68041e-19  2.13772e-26     -1.15689 
         800     0.013333  0.000793305 -1.05927e-06     -1.15689 
         800     0.053333   0.00317308 -1.47648e-05     -1.15689 
         800         0.12   0.00678024 -5.91675e-05     -1.15689 
         800     0.213332    0.0105551  -0.00013441     -1.15689 
         800     0.333332    0.0132737 -0.000215637     -1.15689 
         800         0.48    0.0144863 -0.000273513     -1.15689 
         800     0.653331    0.0146375  -0.00029816     -1.15688 
         800     0.853332    0.0143065 -0.000303999     -1.15688 
         800         1.08    0.0135498 -0.000320899     -1.15687 
         800      1.33333    0.0120877  -0.00037494     -1.15688 
         800      1.61333    0.0100633 -0.000465546     -1.15689 
         800         1.92   0.00806878 -0.000565722     -1.15693 
         800      2.25333   0.00612401 -0.000657112       -1.157 
         800      2.61333   0.00411233 -0.000734988      -1.1571 
         800            3   0.00204719 -0.000797294     -1.15723 
         850            0            0            0    -0.924095 
         850     0.013333  1.05435e-06  6.00407e-07    -0.924094 
         850     0.053333 -0.000166156  8.81506e-06    -0.924094 
         850         0.12  -0.00078063  3.85484e-05    -0.924094 
         850     0.213332  -0.00180174  9.92514e-05    -0.924094 
         850     0.333332  -0.00284055  0.000188188    -0.924094 
         850         0.48  -0.00353797  0.000294796    -0.924096 
         850     0.653331  -0.00382925  0.000411504    -0.924098 
         850     0.853332   -0.0038064  0.000539656      -0.9241 
         850         1.08  -0.00347579  0.000687093    -0.924101 
         850      1.33333   -0.0028151  0.000858168    -0.924101 
         850      1.61333  -0.00203894   0.00104213    -0.924097 
         850         1.92  -0.00147885   0.00121701    -0.924087 
         850      2.25333  -0.00104456   0.00136963    -0.924068 
         850      2.61333 -0.000615535   0.00149294    -0.924038 
         850            3 -0.000177965   0.00158088    -0.923998 
         900            0           -0           -0    -0.685356 
         900     0.013333  -6.6408e-05 -1.44957e-07    -0.685356 
         900     0.053333 -0.000194022 -2.19405e-06    -0.685356 
         900         0.12 -0.000249425 -1.00317e-05    -0.685356 
         900     0.213332 -0.000162234 -2.72185e-05    -0.685356 
         900     0.333332  1.21522e-05 -5.45115e-05    -0.685356 
         900         0.48  0.000170046 -8.99679e-05    -0.685356 
         900     0.653331  0.000254169 -0.000131403    -0.685356 
         900     0.853332  0.000257104 -0.000178366    -0.685355 
         900         1.08  0.000174999 -0.000231873    -0.685355 
         900      1.33333  1.99305e-05 -0.000291639    -0.685355 
         900      1.61333 -0.000126407 -0.000353026    -0.685355 
         900         1.92 -0.000169965 -0.000409268    -0.685356 
         900      2.25333 -0.000162921 -0.000456659    -0.685358 
         900      2.61333 -0.000150683 -0.000493986     -0.68536 
         900            3 -0.000137214 -0.000519859    -0.685364 
         950            0            0            0    -0.448403 
         950     0.013333  2.04171e-05  2.04307e-08    -0.448403 
         950     0.053333  7.07862e-05  3.22542e-07    -0.448403 
         950         0.12  0.000115999  1.55874e-06    -0.448403 
         950     0.213332  0.000132593  4.47987e-06    -0.448403 
         950     0.333332  0.000120894  9.45777e-06    -0.448403 
         950         0.48  9.92909e-05  1.63154e-05    -0.448403 
         950     0.653331   8.4127e-05  2.46593e-05    -0.448403 
         950     0.853332  8.22767e-05  3.42957e-05    -0.448403 
         950         1.08  9.57475e-05  4.52202e-05    -0.448403 
         950      1.33333  0.000119391  5.71736e-05    -0.448403 
         950      1.61333  0.000134202  6.90257e-05    -0.448403 
         950         1.92  0.000122451  7.93934e-05    -0.448402 
         950      2.25333  9.92532e-05  8.78524e-05    -0.448402 
         950      2.61333  7.58254e-05  9.43126e-05    -0.448402 
         950            3  5.26784e-05  9.85695e-05    -0.448403 
        1000            0           -0           -0    -0.212194 
        1000     0.013333 -4.50966e-06 -1.03542e-09    -0.212194 
        1000     0.053333 -1.26574e-05 -1.91036e-08    -0.212194 
        1000         0.12 -2.27314e-05 -1.09437e-07    -0.212194 
        1000     0.213332 -2.91946e-05 -3.62104e-07    -0.212194 
        1000     0.333332 -3.10778e-05 -8.48244e-07    -0.212194 
        1000         0.48 -3.01731e-05 -1.57318e-06    -0.212194 
        1000     0.653331  -2.8973e-05 -2.49708e-06    -0.212194 
        1000     0.853332 -2.89748e-05 -3.58195e-06    -0.212194 
        1000         1.08 -3.06259e-05 -4.80862e-06    -0.212194 
        1000      1.33333 -3.29294e-05 -6.10046e-06    -0.212194 
        1000      1.61333 -3.29253e-05 -7.26346e-06    -0.212194 
        1000         1.92 -2.85126e-05 -8.26953e-06    -0.212194 
        1000      2.25333 -2.27966e-05 -8.92531e-06    -0.212194 
        1000      2.61333 -1.75706e-05 -9.32666e-06    -0.212193 
        1000            3 -1.26739e-05 -9.59982e-06    -0.212193 
