Variables = x, y, u, v, p

Zone, I=800, F=POINT
         800            0  1.44001e-18  4.31507e-28 -3.17882e-05 
         800     0.000234  7.28422e-05  3.77659e-12 -3.17882e-05 
         800     0.000939  0.000292303  6.05489e-11 -3.17881e-05 
         800     0.002113  0.000657759  3.06351e-10 -3.17879e-05 
         800     0.003759   0.00117014  9.69249e-10 -3.17877e-05 
         800     0.005872    0.0018279  2.36483e-09 -3.17874e-05 
         800     0.008457   0.00263259  4.90482e-09  -3.1787e-05 
         800      0.01151   0.00358297  9.08484e-09 -3.17866e-05 
         800     0.015036   0.00468058   1.5503e-08 -3.17861e-05 
         800     0.019031   0.00592419   2.4835e-08 -3.17856e-05 
         800     0.023493   0.00731317  3.78453e-08  -3.1785e-05 
         800     0.028429   0.00884971  5.54185e-08 -3.17843e-05 
         800     0.033831    0.0105313  7.84798e-08 -3.17836e-05 
         800     0.039706    0.0123602  1.08103e-07 -3.17828e-05 
         800     0.046047    0.0143341  1.45387e-07 -3.17819e-05 
         800     0.052863    0.0164558  1.91613e-07  -3.1781e-05 
         800      0.06015    0.0187242   2.4808e-07   -3.178e-05 
         800       0.0679    0.0211367  3.16126e-07 -3.17789e-05 
         800     0.076126    0.0236974  3.97361e-07 -3.17778e-05 
         800     0.084816    0.0264025  4.93259e-07 -3.17766e-05 
         800     0.093982    0.0292558   6.0563e-07 -3.17753e-05 
         800     0.103611    0.0322531  7.36085e-07  -3.1774e-05 
         800     0.113718    0.0353993  8.86695e-07 -3.17726e-05 
         800     0.124286    0.0386889  1.05915e-06 -3.17712e-05 
         800     0.135333    0.0421276   1.2558e-06 -3.17696e-05 
         800      0.14685    0.0457126  1.47862e-06 -3.17681e-05 
         800     0.158827    0.0494407  1.72964e-06 -3.17664e-05 
         800     0.171284    0.0533181  2.01158e-06 -3.17647e-05 
         800     0.184201    0.0573386  2.32639e-06 -3.17629e-05 
         800     0.197599    0.0615087  2.67709e-06 -3.17611e-05 
         800     0.211455    0.0658211  3.06565e-06 -3.17592e-05 
         800     0.225792    0.0702831   3.4954e-06 -3.17572e-05 
         800       0.2406    0.0748915  3.96883e-06 -3.17552e-05 
         800     0.255865    0.0796418  4.48828e-06 -3.17531e-05 
         800     0.271613    0.0845421  5.05765e-06 -3.17509e-05 
         800     0.287818    0.0895841  5.67898e-06 -3.17487e-05 
         800     0.304506     0.094776  6.35636e-06 -3.17464e-05 
         800      0.32165     0.100109   7.0919e-06 -3.17441e-05 
         800     0.339278     0.105592  7.89012e-06 -3.17416e-05 
         800     0.357377     0.111221  8.75388e-06 -3.17392e-05 
         800      0.37593      0.11699  9.68576e-06 -3.17366e-05 
         800     0.394968     0.122909  1.06908e-05  -3.1734e-05 
         800     0.414461     0.128968  1.17711e-05 -3.17313e-05 
         800      0.43444     0.135177   1.2932e-05 -3.17286e-05 
         800     0.454872     0.141524  1.41755e-05 -3.17257e-05 
         800     0.475791     0.148021  1.55073e-05 -3.17228e-05 
         800     0.497163     0.154657  1.69295e-05 -3.17199e-05 
         800     0.519021     0.161441  1.84481e-05 -3.17169e-05 
         800      0.54135     0.168369  2.00661e-05 -3.17138e-05 
         800     0.564131     0.175433  2.17863e-05 -3.17106e-05 
         800       0.5874     0.182646  2.36155e-05 -3.17074e-05 
         800     0.611121     0.189994  2.55558e-05 -3.17041e-05 
         800      0.63533     0.197489  2.76137e-05 -3.17008e-05 
         800      0.65999     0.205118    2.979e-05 -3.16974e-05 
         800     0.685139     0.212893  3.20931e-05 -3.16939e-05 
         800     0.710759     0.220807  3.45263e-05 -3.16903e-05 
         800     0.736828     0.228852   3.7092e-05 -3.16866e-05 
         800     0.763387     0.237041  3.97986e-05 -3.16829e-05 
         800     0.790396      0.24536  4.26463e-05 -3.16791e-05 
         800     0.817896      0.25382  4.56439e-05 -3.16752e-05 
         800     0.845843     0.262406  4.87908e-05 -3.16713e-05 
         800     0.874283     0.271132  5.20968e-05 -3.16673e-05 
         800      0.90317     0.279982  5.55612e-05 -3.16632e-05 
         800     0.932551     0.288969  5.91943e-05  -3.1659e-05 
         800     0.962401     0.298083  6.29979e-05 -3.16548e-05 
         800     0.992697     0.307315  6.69735e-05 -3.16504e-05 
         800      1.02349     0.316679  7.11322e-05  -3.1646e-05 
         800      1.05472     0.326157  7.54714e-05 -3.16415e-05 
         800      1.08645     0.335763  8.00027e-05 -3.16369e-05 
         800      1.11863     0.345478  8.47225e-05 -3.16322e-05 
         800       1.1513     0.355315  8.96422e-05 -3.16274e-05 
         800      1.18444     0.365264  9.47617e-05 -3.16226e-05 
         800      1.21802     0.375314   0.00010008 -3.16176e-05 
         800      1.25211     0.385479   0.00010561 -3.16125e-05 
         800      1.28663     0.395737  0.000111344 -3.16073e-05 
         800      1.32165     0.406102  0.000117298  -3.1602e-05 
         800      1.35712     0.416554  0.000123464 -3.15967e-05 
         800      1.39308     0.427105  0.000129857 -3.15912e-05 
         800      1.42951     0.437744  0.000136473 -3.15858e-05 
         800      1.46638     0.448456  0.000143306 -3.15804e-05 
         800      1.50375     0.459255  0.000150364 -3.15752e-05 
         800      1.54156     0.470118  0.000157646 -3.15699e-05 
         800      1.57987     0.481057  0.000165172 -3.15635e-05 
         800      1.61863     0.492049  0.000172926 -3.15565e-05 
         800      1.65788     0.503107  0.000180916 -3.15491e-05 
         800      1.69757     0.514205  0.000189125 -3.15416e-05 
         800      1.73776     0.525357  0.000197565 -3.15341e-05 
         800      1.77842     0.536547  0.000206229 -3.15268e-05 
         800      1.81952     0.547758  0.000215108 -3.15196e-05 
         800      1.86113     0.559002  0.000224215 -3.15126e-05 
         800      1.90316     0.570253  0.000233533 -3.15057e-05 
         800      1.94571     0.581522  0.000243076 -3.14989e-05 
         800      1.98869     0.592782  0.000252825  -3.1492e-05 
         800      2.03217     0.604045  0.000262792 -3.14851e-05 
         800      2.07612     0.615292  0.000272965 -3.14778e-05 
         800      2.12051     0.626505   0.00028333 -3.14703e-05 
         800       2.1654     0.637695  0.000293895 -3.14623e-05 
         800      2.21073     0.648833  0.000304636 -3.14538e-05 
         800      2.25656      0.65993  0.000315561 -3.14448e-05 
         800      2.30283     0.670957  0.000326643 -3.14353e-05 
         800       2.3496     0.681923  0.000337887 -3.14253e-05 
         800      2.39685      0.69281  0.000349274 -3.14147e-05 
         800      2.44452     0.703598  0.000360782 -3.14037e-05 
         800      2.49271     0.714297  0.000372415 -3.13924e-05 
         800      2.54132     0.724878  0.000384143 -3.13808e-05 
         800      2.59044     0.735349   0.00039597  -3.1369e-05 
         800         2.64     0.745684  0.000407863 -3.13571e-05 
         800      2.69006     0.755889  0.000419826 -3.13453e-05 
         800      2.74056     0.765938  0.000431828 -3.13336e-05 
         800      2.79156     0.775839  0.000443872  -3.1322e-05 
         800      2.84304     0.785573  0.000455934 -3.13105e-05 
         800      2.89494     0.795125  0.000467989 -3.12992e-05 
         800      2.94735       0.8045  0.000480041 -3.12878e-05 
         800       3.0002     0.813676  0.000492055 -3.12763e-05 
         800      3.05355     0.822658  0.000504032 -3.12645e-05 
         800      3.10733     0.831425  0.000515935  -3.1252e-05 
         800      3.16163     0.839984  0.000527763 -3.12387e-05 
         800      3.21639      0.84832  0.000539485 -3.12241e-05 
         800      3.27158     0.856421   0.00055107 -3.12082e-05 
         800      3.32729     0.864294  0.000562515 -3.11907e-05 
         800      3.38342     0.871921  0.000573779 -3.11717e-05 
         800      3.44007      0.87931  0.000584858 -3.11514e-05 
         800      3.49714     0.886445   0.00059572 -3.11305e-05 
         800      3.55472     0.893335  0.000606372 -3.11103e-05 
         800      3.61273     0.899965  0.000616798 -3.10925e-05 
         800      3.67125     0.906344  0.000627033 -3.10802e-05 
         800      3.73025     0.912467  0.000637111 -3.10773e-05 
         800      3.78967     0.918326  0.000646792 -3.10692e-05 
         800      3.84961     0.923933  0.000656134 -3.10495e-05 
         800      3.90996     0.929279  0.000665219 -3.10259e-05 
         800      3.97084     0.934375   0.00067404 -3.09999e-05 
         800      4.03214     0.939215  0.000682565 -3.09726e-05 
         800      4.09395     0.943809  0.000690793 -3.09448e-05 
         800      4.15624     0.948157  0.000698703 -3.09173e-05 
         800      4.21895     0.952261  0.000706281 -3.08907e-05 
         800      4.28217      0.95613  0.000713534 -3.08653e-05 
         800      4.34582     0.959766  0.000720446 -3.08413e-05 
         800      4.40998      0.96318  0.000727026 -3.08188e-05 
         800      4.47457     0.966372  0.000733265 -3.07978e-05 
         800      4.53968     0.969356  0.000739176 -3.07781e-05 
         800      4.60525     0.972135  0.000744757 -3.07596e-05 
         800      4.67125     0.974716   0.00075001 -3.07422e-05 
         800      4.73777      0.97711  0.000754951 -3.07254e-05 
         800       4.8047     0.979322  0.000759579  -3.0709e-05 
         800      4.87216     0.981364  0.000763911 -3.06927e-05 
         800      4.94003     0.983241  0.000767949 -3.06763e-05 
         800      5.00843     0.984964  0.000771711 -3.06592e-05 
         800      5.07724     0.986539  0.000775201 -3.06414e-05 
         800      5.14658     0.987977  0.000778435 -3.06224e-05 
         800      5.21639     0.989286  0.000781423  -3.0602e-05 
         800      5.28661     0.990472  0.000784172 -3.05798e-05 
         800      5.35736     0.991545  0.000786698 -3.05556e-05 
         800      5.42852     0.992513  0.000789009 -3.05289e-05 
         800      5.50021     0.993384  0.000791118 -3.04995e-05 
         800      5.57231     0.994163  0.000793032 -3.04669e-05 
         800      5.64493     0.994861  0.000794763 -3.04305e-05 
         800      5.71803     0.995482  0.000796318 -3.03897e-05 
         800      5.79154     0.996034  0.000797705 -3.03438e-05 
         800      5.86558     0.996522  0.000798932 -3.02917e-05 
         800      5.94003     0.996953  0.000800021 -3.02407e-05 
         800      6.01501     0.997332  0.000801079 -3.02326e-05 
         800       6.0904     0.997664  0.000802005 -3.02207e-05 
         800      6.16632     0.997955  0.000802812 -3.02056e-05 
         800      6.24271     0.998208  0.000803513 -3.01878e-05 
         800       6.3195     0.998427  0.000804118 -3.01679e-05 
         800      6.39683     0.998617  0.000804638 -3.01462e-05 
         800      6.47457     0.998781  0.000805085 -3.01231e-05 
         800      6.55284     0.998921  0.000805467 -3.00989e-05 
         800      6.63152     0.999042  0.000805794 -3.00738e-05 
         800      6.71073     0.999144  0.000806074 -3.00481e-05 
         800      6.79034     0.999232  0.000806315  -3.0022e-05 
         800      6.87049     0.999305  0.000806522 -2.99957e-05 
         800      6.95111     0.999368  0.000806701 -2.99692e-05 
         800      7.03214      0.99942  0.000806855 -2.99428e-05 
         800       7.1137     0.999463  0.000806989 -2.99165e-05 
         800      7.19566     0.999499  0.000807104 -2.98905e-05 
         800      7.27816     0.999529  0.000807201 -2.98646e-05 
         800      7.36106     0.999554  0.000807282 -2.98388e-05 
         800      7.44451     0.999574  0.000807347 -2.98127e-05 
         800      7.52842     0.999591  0.000807399 -2.97859e-05 
         800      7.61273     0.999604  0.000807442 -2.97576e-05 
         800      7.69758     0.999615  0.000807482 -2.97266e-05 
         800      7.78283     0.999624  0.000807533 -2.96912e-05 
         800      7.86862     0.999632  0.000807615 -2.96495e-05 
         800      7.95481     0.999638  0.000807626 -2.96113e-05 
         800      8.04155     0.999643  0.000807596 -2.95774e-05 
         800      8.12868     0.999648  0.000807563 -2.95468e-05 
         800      8.21635     0.999651  0.000807547 -2.95187e-05 
         800      8.30449     0.999654  0.000807556  -2.9492e-05 
         800      8.39303     0.999656  0.000807591 -2.94661e-05 
         800      8.48211     0.999658  0.000807645 -2.94401e-05 
         800      8.57159      0.99966   0.00080771 -2.94136e-05 
         800      8.66161     0.999661  0.000807777  -2.9386e-05 
         800      8.75203     0.999662  0.000807835 -2.93572e-05 
         800      8.84299     0.999662  0.000807879 -2.93269e-05 
         800      8.93443     0.999663  0.000807901 -2.92951e-05 
         800      9.02626     0.999663  0.000807902 -2.92616e-05 
         800      9.11863     0.999664   0.00080788 -2.92265e-05 
         800      9.21139     0.999665  0.000807838 -2.91899e-05 
         800      9.30471     0.999665  0.000807781 -2.91514e-05 
         800      9.39841     0.999666  0.000807716 -2.91111e-05 
         800      9.49267     0.999666  0.000807648 -2.90684e-05 
         800      9.58739     0.999667  0.000807585 -2.90229e-05 
         800      9.68251     0.999667  0.000807533 -2.89737e-05 
         800      9.77817     0.999668  0.000807495 -2.89196e-05 
         800      9.87422     0.999668  0.000807473 -2.88592e-05 
         800      9.97083     0.999669  0.000807477 -2.88185e-05 
         800      10.0678     0.999669  0.000807528 -2.88254e-05 
         800      10.1654     0.999669  0.000807603 -2.88166e-05 
         800      10.2633      0.99967  0.000807694 -2.87963e-05 
         800      10.3618      0.99967  0.000807789 -2.87676e-05 
         800      10.4607     0.999671  0.000807875 -2.87335e-05 
         800      10.5601     0.999671  0.000807942 -2.86962e-05 
         800        10.66     0.999672  0.000807978 -2.86572e-05 
         800      10.7603     0.999672  0.000807979 -2.86174e-05 
         800      10.8611     0.999672  0.000807943 -2.85771e-05 
         800      10.9623     0.999673  0.000807874  -2.8536e-05 
         800      11.0641     0.999673  0.000807784 -2.84936e-05 
         800      11.1663     0.999673  0.000807689  -2.8449e-05 
         800       11.269     0.999674  0.000807611 -2.84016e-05 
         800      11.3721     0.999674  0.000807574 -2.83511e-05 
         800      11.4757     0.999675  0.000807599 -2.82983e-05 
         800      11.5798     0.999675  0.000807696 -2.82452e-05 
         800      11.6844     0.999676  0.000807857 -2.81964e-05 
         800      11.7894     0.999677  0.000808039  -2.8159e-05 
         800       11.895     0.999678  0.000808147 -2.81445e-05 
         800      12.0009     0.999678  0.000808012 -2.81689e-05 
         800      12.1073     0.999677  0.000807381 -2.82505e-05 
         800      12.2142     0.999679  0.000807832 -2.80856e-05 
         800      12.3216     0.999679  0.000808009 -2.79956e-05 
         800      12.4294     0.999679  0.000808001 -2.79556e-05 
         800      12.5378      0.99968  0.000807892 -2.79458e-05 
         800      12.6465      0.99968  0.000807759 -2.79514e-05 
         800      12.7558     0.999681  0.000807657 -2.79615e-05 
         800      12.8656     0.999681  0.000807612 -2.79677e-05 
         800      12.9757     0.999682  0.000807609 -2.79631e-05 
         800      13.0864     0.999683   0.00080757 -2.79404e-05 
         800      13.1975     0.999683  0.000807334 -2.78902e-05 
         800      13.3092     0.999684   0.00080723 -2.78205e-05 
         800      13.4212     0.999685  0.000807571 -2.77599e-05 
         800      13.5338     0.999685  0.000807812 -2.76961e-05 
         800      13.6468     0.999686  0.000807974 -2.76301e-05 
         800      13.7603     0.999686   0.00080807 -2.75631e-05 
         800      13.8743     0.999686   0.00080811 -2.74959e-05 
         800      13.9886     0.999687  0.000808103 -2.74295e-05 
         800      14.1036     0.999687  0.000808059 -2.73643e-05 
         800      14.2189     0.999687   0.00080799 -2.73011e-05 
         800      14.3348     0.999688  0.000807909 -2.72405e-05 
         800       14.451     0.999688  0.000807829  -2.7183e-05 
         800      14.5678     0.999689  0.000807762  -2.7129e-05 
         800      14.6851      0.99969  0.000807718  -2.7079e-05 
         800      14.8028     0.999691  0.000807704 -2.70332e-05 
         800       14.921     0.999691  0.000807722 -2.69917e-05 
         800      15.0396     0.999692   0.00080777 -2.69544e-05 
         800      15.1588     0.999693   0.00080784 -2.69212e-05 
         800      15.2783     0.999694  0.000807922 -2.68917e-05 
         800      15.3984     0.999694  0.000808003 -2.68651e-05 
         800       15.519     0.999695  0.000808069 -2.68407e-05 
         800        15.64     0.999695  0.000808105 -2.68175e-05 
         800      15.7615     0.999695  0.000808104 -2.67941e-05 
         800      15.8834     0.999696  0.000808063 -2.67693e-05 
         800      16.0058     0.999696  0.000807986 -2.67417e-05 
         800      16.1286     0.999696  0.000807888 -2.67099e-05 
         800       16.252     0.999697  0.000807791 -2.66729e-05 
         800      16.3759     0.999697  0.000807722 -2.66299e-05 
         800      16.5002     0.999698  0.000807707 -2.65808e-05 
         800       16.625     0.999699  0.000807759 -2.65263e-05 
         800      16.7501       0.9997  0.000807863 -2.64685e-05 
         800      16.8759     0.999701  0.000807952  -2.6411e-05 
         800       17.002     0.999702  0.000807875 -2.63596e-05 
         800      17.1287     0.999702  0.000807354 -2.63228e-05 
         800      17.2557     0.999703  0.000807702 -2.62583e-05 
         800      17.3834     0.999703  0.000807932 -2.62041e-05 
         800      17.5115     0.999704  0.000808042 -2.61577e-05 
         800      17.6399     0.999704  0.000808069 -2.61156e-05 
         800       17.769     0.999705  0.000808044 -2.60756e-05 
         800      17.8984     0.999706  0.000807991 -2.60358e-05 
         800      18.0284     0.999706  0.000807928 -2.59951e-05 
         800      18.1587     0.999707  0.000807868 -2.59529e-05 
         800      18.2896     0.999708  0.000807821 -2.59088e-05 
         800       18.421     0.999708  0.000807792  -2.5863e-05 
         800      18.5528     0.999709  0.000807782 -2.58157e-05 
         800      18.6851      0.99971  0.000807791 -2.57673e-05 
         800      18.8178      0.99971  0.000807816 -2.57183e-05 
         800      18.9511     0.999711  0.000807854 -2.56692e-05 
         800      19.0847     0.999712  0.000807899 -2.56206e-05 
         800      19.2189     0.999712  0.000807946 -2.55728e-05 
         800      19.3535     0.999713  0.000807992 -2.55262e-05 
         800      19.4886     0.999713  0.000808031  -2.5481e-05 
         800      19.6242     0.999714   0.00080806 -2.54373e-05 
         800      19.7602     0.999715  0.000808077 -2.53951e-05 
         800      19.8968     0.999715  0.000808081 -2.53541e-05 
         800      20.0337     0.999716  0.000808073 -2.53141e-05 
         800      20.1712     0.999717  0.000808052 -2.52745e-05 
         800      20.3091     0.999718  0.000808022 -2.52349e-05 
         800      20.4475     0.999718  0.000807986 -2.51946e-05 
         800      20.5864     0.999719  0.000807948 -2.51528e-05 
         800      20.7257      0.99972  0.000807912  -2.5109e-05 
         800      20.8655      0.99972  0.000807881 -2.50624e-05 
         800      21.0058     0.999721  0.000807859 -2.50124e-05 
         800      21.1465     0.999722  0.000807849 -2.49585e-05 
         800      21.2877     0.999723  0.000807852 -2.49003e-05 
         800      21.4294     0.999723  0.000807869 -2.48377e-05 
         800      21.5716     0.999724  0.000807898 -2.47706e-05 
         800      21.7142     0.999725  0.000807936 -2.46994e-05 
         800      21.8573     0.999725   0.00080798 -2.46247e-05 
         800      22.0008     0.999726  0.000808025 -2.45474e-05 
         800      22.1449     0.999727  0.000808068 -2.44686e-05 
         800      22.2893     0.999727  0.000808106   -2.439e-05 
         800      22.4344     0.999728  0.000808143 -2.43134e-05 
         800      22.5797     0.999729  0.000808188  -2.4241e-05 
         800      22.7257      0.99973  0.000808258  -2.4175e-05 
         800      22.8721      0.99973  0.000808386 -2.41182e-05 
         800      23.0189     0.999731  0.000808626 -2.40733e-05 
         800      23.1663     0.999731  0.000808168 -2.40343e-05 
         800       23.314     0.999732  0.000807813 -2.40175e-05 
         800      23.4623     0.999733   0.00080761 -2.40182e-05 
         800       23.611     0.999734  0.000807546 -2.40287e-05 
         800      23.7602     0.999735  0.000807608 -2.40391e-05 
         800        23.91     0.999737  0.000807767 -2.40359e-05 
         800        24.06     0.999738  0.000807972  -2.4002e-05 
         800      24.2107     0.999739  0.000808136 -2.39152e-05 
         800      24.3617      0.99974   0.00080812 -2.37479e-05 
         800      24.5133     0.999741  0.000808138 -2.36986e-05 
         800      24.6653     0.999741  0.000808169 -2.36927e-05 
         800      24.8178     0.999741  0.000808153 -2.36688e-05 
         800      24.9708     0.999742  0.000808119 -2.36313e-05 
         800      25.1242     0.999742  0.000808083 -2.35836e-05 
         800      25.2781     0.999743  0.000808056 -2.35283e-05 
         800      25.4324     0.999743  0.000808041 -2.34673e-05 
         800      25.5873     0.999744   0.00080804 -2.34019e-05 
         800      25.7426     0.999745  0.000808049 -2.33332e-05 
         800      25.8984     0.999746  0.000808066 -2.32613e-05 
         800      26.0546     0.999747  0.000808086 -2.31866e-05 
         800      26.2114     0.999748  0.000808106 -2.31085e-05 
         800      26.3686     0.999749  0.000808122 -2.30268e-05 
         800      26.5262      0.99975  0.000808132 -2.29409e-05 
         800      26.6844     0.999751  0.000808134 -2.28497e-05 
         800      26.8429     0.999752  0.000808126 -2.27528e-05 
         800       27.002     0.999753   0.00080811  -2.2649e-05 
         800      27.1615     0.999753  0.000808087 -2.25376e-05 
         800      27.3216     0.999754  0.000808013 -2.25414e-05 
         800      27.4821     0.999755  0.000807956 -2.25735e-05 
         800       27.643     0.999756  0.000807937 -2.25795e-05 
         800      27.8044     0.999757  0.000807951 -2.25635e-05 
         800      27.9663     0.999758  0.000807989 -2.25296e-05 
         800      28.1287     0.999758  0.000808043 -2.24812e-05 
         800      28.2914     0.999759  0.000808103 -2.24217e-05 
         800      28.4548     0.999759  0.000808162 -2.23537e-05 
         800      28.6185      0.99976  0.000808211 -2.22802e-05 
         800      28.7828     0.999761  0.000808243  -2.2203e-05 
         800      28.9475     0.999762  0.000808256 -2.21242e-05 
         800      29.1126     0.999763  0.000808248 -2.20456e-05 
         800      29.2784     0.999763  0.000808219 -2.19682e-05 
         800      29.4444     0.999764  0.000808174 -2.18931e-05 
         800       29.611     0.999765  0.000808116 -2.18211e-05 
         800       29.778     0.999766  0.000808055 -2.17526e-05 
         800      29.9456     0.999768  0.000807998 -2.16877e-05 
         800      30.1137     0.999769  0.000807953 -2.16264e-05 
         800      30.2821      0.99977  0.000807928 -2.15685e-05 
         800      30.4511     0.999771  0.000807927 -2.15133e-05 
         800      30.6204     0.999771  0.000807954 -2.14604e-05 
         800      30.7903     0.999772  0.000808007 -2.14089e-05 
         800      30.9606     0.999773   0.00080808 -2.13581e-05 
         800      31.1315     0.999774  0.000808165  -2.1307e-05 
         800      31.3028     0.999775  0.000808246  -2.1255e-05 
         800      31.4745     0.999776  0.000808309 -2.12013e-05 
         800      31.6468     0.999777  0.000808336 -2.11455e-05 
         800      31.8194     0.999778  0.000808315 -2.10876e-05 
         800      31.9926     0.999779  0.000808243 -2.10276e-05 
         800      32.1662     0.999781   0.00080813 -2.09665e-05 
         800      32.3404     0.999782  0.000808016 -2.09058e-05 
         800      32.5149     0.999783  0.000807975 -2.08479e-05 
         800        32.69     0.999783  0.000808138 -2.07961e-05 
         800      32.8655     0.999783  0.000808707  -2.0755e-05 
         800      33.0414     0.999784  0.000808336 -2.06874e-05 
         800       33.218     0.999786  0.000808102 -2.06207e-05 
         800      33.3948     0.999787  0.000808042 -2.05582e-05 
         800      33.5723     0.999788  0.000808069  -2.0499e-05 
         800        33.75     0.999789  0.000808127 -2.04421e-05 
         800      33.9284      0.99979  0.000808182  -2.0387e-05 
         800      34.1073     0.999791   0.00080822  -2.0333e-05 
         800      34.2865     0.999791  0.000808239 -2.02799e-05 
         800      34.4663     0.999792  0.000808244 -2.02273e-05 
         800      34.6465     0.999793  0.000808245 -2.01749e-05 
         800      34.8272     0.999794  0.000808252 -2.01222e-05 
         800      35.0083     0.999795  0.000808266 -2.00684e-05 
         800        35.19     0.999796   0.00080828 -2.00118e-05 
         800      35.3721     0.999798  0.000808272 -1.99499e-05 
         800      35.5546     0.999798  0.000808196  -1.9879e-05 
         800      35.7377     0.999799  0.000807979 -1.97932e-05 
         800      35.9211     0.999798  0.000807513 -1.96848e-05 
         800      36.1052     0.999801  0.000807772 -1.95879e-05 
         800      36.2895     0.999803  0.000808042  -1.9492e-05 
         800      36.4745     0.999805  0.000808221 -1.93945e-05 
         800      36.6598     0.999806  0.000808335 -1.92972e-05 
         800      36.8457     0.999807  0.000808401  -1.9201e-05 
         800      37.0321     0.999808  0.000808435 -1.91072e-05 
         800      37.2188     0.999808  0.000808447 -1.90165e-05 
         800      37.4062     0.999809  0.000808443 -1.89292e-05 
         800      37.5938      0.99981  0.000808427  -1.8846e-05 
         800      37.7821      0.99981  0.000808404 -1.87668e-05 
         800      37.9707     0.999811  0.000808373 -1.86917e-05 
         800      38.1599     0.999812  0.000808337 -1.86206e-05 
         800      38.3496     0.999813  0.000808297 -1.85532e-05 
         800      38.5396     0.999814  0.000808255 -1.84893e-05 
         800      38.7302     0.999815  0.000808213 -1.84285e-05 
         800      38.9211     0.999816  0.000808176 -1.83704e-05 
         800      39.1127     0.999817  0.000808146 -1.83145e-05 
         800      39.3046     0.999818  0.000808128 -1.82606e-05 
         800      39.4971     0.999819  0.000808127 -1.82082e-05 
         800      39.6899     0.999821  0.000808146  -1.8157e-05 
         800      39.8833     0.999822  0.000808187 -1.81067e-05 
         800      40.0772     0.999824  0.000808252 -1.80571e-05 
         800      40.2714     0.999825  0.000808339  -1.8008e-05 
         800      40.4663     0.999826  0.000808444 -1.79593e-05 
         800      40.6615     0.999828  0.000808561 -1.79109e-05 
         800      40.8573     0.999829  0.000808679 -1.78626e-05 
         800      41.0534      0.99983  0.000808784 -1.78143e-05 
         800      41.2501     0.999831  0.000808862 -1.77658e-05 
         800      41.4473     0.999832  0.000808895 -1.77166e-05 
         800      41.6448     0.999833   0.00080887 -1.76663e-05 
         800      41.8429     0.999834  0.000808772 -1.76138e-05 
         800      42.0414     0.999834    0.0008086  -1.7558e-05 
         800      42.2405     0.999835  0.000808362 -1.74969e-05 
         800      42.4399     0.999836  0.000808085 -1.74283e-05 
         800      42.6399     0.999837  0.000807827 -1.73487e-05 
         800      42.8404     0.999838  0.000807681 -1.72539e-05 
         800      43.0412     0.999839  0.000807792 -1.71385e-05 
         800      43.2426     0.999841   0.00080837 -1.69956e-05 
         800      43.4444     0.999842   0.00080807 -1.69236e-05 
         800      43.6467     0.999842   0.00080762 -1.68767e-05 
         800      43.8494     0.999843  0.000807514 -1.68142e-05 
         800      44.0527     0.999845  0.000807612 -1.67386e-05 
         800      44.2563     0.999846   0.00080781 -1.66525e-05 
         800      44.4606     0.999848  0.000808037 -1.65584e-05 
         800      44.6653     0.999849  0.000808244 -1.64583e-05 
         800      44.8704     0.999851  0.000808406 -1.63546e-05 
         800       45.076     0.999852  0.000808509 -1.62487e-05 
         800       45.282     0.999853  0.000808551 -1.61426e-05 
         800      45.4886     0.999854   0.00080854 -1.60376e-05 
         800      45.6955     0.999855  0.000808486  -1.5935e-05 
         800       45.903     0.999856  0.000808403 -1.58359e-05 
         800      46.1111     0.999857  0.000808305  -1.5741e-05 
         800      46.3194     0.999858  0.000808205 -1.56513e-05 
         800      46.5283     0.999859  0.000808116  -1.5567e-05 
         800      46.7376      0.99986  0.000808045 -1.54886e-05 
         800      46.9475     0.999861  0.000808001 -1.54161e-05 
         800      47.1577     0.999862  0.000807986 -1.53496e-05 
         800      47.3685     0.999864     0.000808 -1.52889e-05 
         800      47.5798     0.999865  0.000808042 -1.52335e-05 
         800      47.7914     0.999866  0.000808106  -1.5183e-05 
         800      48.0037     0.999867  0.000808188 -1.51368e-05 