Variables = x, y, u, v, p

Zone, I=800, F=POINT
         600            0           -0           -0 -3.85346e-05 
         600     0.000234  8.02599e-05  5.02925e-12 -3.85345e-05 
         600     0.000939  0.000322068  8.09733e-11 -3.85344e-05 
         600     0.002113   0.00072474  4.10014e-10 -3.85342e-05 
         600     0.003759    0.0012893   1.2976e-09 -3.85339e-05 
         600     0.005872   0.00201404  3.16643e-09 -3.85335e-05 
         600     0.008457   0.00290068  6.56795e-09  -3.8533e-05 
         600      0.01151   0.00394783   1.2166e-08 -3.85324e-05 
         600     0.015036   0.00515722  2.07617e-08 -3.85318e-05 
         600     0.019031   0.00652747    3.326e-08 -3.85311e-05 
         600     0.023493    0.0080579  5.06846e-08 -3.85302e-05 
         600     0.028429    0.0097509  7.42203e-08 -3.85293e-05 
         600     0.033831    0.0116037  1.05107e-07 -3.85283e-05 
         600     0.039706    0.0136188  1.44781e-07 -3.85273e-05 
         600     0.046047    0.0157937  1.94717e-07 -3.85261e-05 
         600     0.052863    0.0181316  2.56629e-07 -3.85248e-05 
         600      0.06015    0.0206309  3.32256e-07 -3.85235e-05 
         600       0.0679    0.0232891  4.23391e-07 -3.85221e-05 
         600     0.076126    0.0261106  5.32192e-07 -3.85206e-05 
         600     0.084816    0.0290911  6.60629e-07  -3.8519e-05 
         600     0.093982     0.032235  8.11131e-07 -3.85173e-05 
         600     0.103611    0.0355376  9.85855e-07 -3.85155e-05 
         600     0.113718    0.0390041  1.18757e-06 -3.85137e-05 
         600     0.124286    0.0426287  1.41855e-06 -3.85117e-05 
         600     0.135333    0.0464175  1.68192e-06 -3.85097e-05 
         600      0.14685    0.0503675  1.98035e-06 -3.85076e-05 
         600     0.158827    0.0544751  2.31654e-06 -3.85054e-05 
         600     0.171284    0.0587472  2.69414e-06 -3.85031e-05 
         600     0.184201     0.063177  3.11577e-06 -3.85007e-05 
         600     0.197599    0.0677715  3.58546e-06 -3.84983e-05 
         600     0.211455    0.0725229  4.10585e-06 -3.84957e-05 
         600     0.225792    0.0774389  4.68139e-06 -3.84931e-05 
         600       0.2406    0.0825161  5.31541e-06 -3.84904e-05 
         600     0.255865    0.0877496  6.01111e-06 -3.84875e-05 
         600     0.271613    0.0931481  6.77357e-06 -3.84847e-05 
         600     0.287818    0.0987028   7.6056e-06 -3.84817e-05 
         600     0.304506     0.104422   8.5127e-06 -3.84786e-05 
         600      0.32165     0.110297  9.49768e-06 -3.84754e-05 
         600     0.339278     0.116337  1.05665e-05 -3.84722e-05 
         600     0.357377     0.122537  1.17231e-05 -3.84689e-05 
         600      0.37593     0.128891  1.29707e-05 -3.84654e-05 
         600     0.394968      0.13541  1.43163e-05 -3.84619e-05 
         600     0.414461     0.142083  1.57625e-05 -3.84583e-05 
         600      0.43444      0.14892  1.73165e-05 -3.84547e-05 
         600     0.454872     0.155909  1.89809e-05 -3.84509e-05 
         600     0.475791     0.163063  2.07635e-05  -3.8447e-05 
         600     0.497163     0.170368  2.26667e-05 -3.84431e-05 
         600     0.519021     0.177835  2.46986e-05  -3.8439e-05 
         600      0.54135     0.185459  2.68633e-05 -3.84349e-05 
         600     0.564131     0.193233  2.91645e-05 -3.84306e-05 
         600       0.5874     0.201168  3.16112e-05 -3.84263e-05 
         600     0.611121     0.209252  3.42052e-05 -3.84219e-05 
         600      0.63533     0.217495  3.69562e-05 -3.84174e-05 
         600      0.65999     0.225883  3.98661e-05 -3.84128e-05 
         600     0.685139      0.23443  4.29447e-05 -3.84081e-05 
         600     0.710759     0.243127  4.61956e-05 -3.84033e-05 
         600     0.736828     0.251966  4.96217e-05 -3.83984e-05 
         600     0.763387      0.26096  5.32343e-05 -3.83934e-05 
         600     0.790396     0.270093  5.70337e-05 -3.83882e-05 
         600     0.817896     0.279377  6.10318e-05  -3.8383e-05 
         600     0.845843     0.288796   6.5228e-05 -3.83777e-05 
         600     0.874283     0.298364  6.96349e-05 -3.83723e-05 
         600      0.90317     0.308062  7.42511e-05 -3.83668e-05 
         600     0.932551     0.317905  7.90896e-05 -3.83611e-05 
         600     0.962401     0.327882   8.4152e-05 -3.83553e-05 
         600     0.992697     0.337982  8.94395e-05 -3.83495e-05 
         600      1.02349     0.348219  9.49659e-05 -3.83434e-05 
         600      1.05472     0.358572  0.000100727 -3.83373e-05 
         600      1.08645     0.369056  0.000106737  -3.8331e-05 
         600      1.11863     0.379651  0.000112992 -3.83247e-05 
         600       1.1513     0.390369  0.000119506 -3.83181e-05 
         600      1.18444     0.401197  0.000126278 -3.83115e-05 
         600      1.21802     0.412124  0.000133307 -3.83047e-05 
         600      1.25211     0.423162  0.000140608 -3.82977e-05 
         600      1.28663     0.434289  0.000148171 -3.82906e-05 
         600      1.32165     0.445517  0.000156012 -3.82833e-05 
         600      1.35712     0.456822   0.00016412 -3.82759e-05 
         600      1.39308     0.468218  0.000172511 -3.82683e-05 
         600      1.42951      0.47969  0.000181178 -3.82604e-05 
         600      1.46638     0.491222  0.000190118 -3.82523e-05 
         600      1.50375     0.502825  0.000199349 -3.82439e-05 
         600      1.54156     0.514474  0.000208849 -3.82358e-05 
         600      1.57987     0.526181  0.000218628 -3.82274e-05 
         600      1.61863      0.53792  0.000228674 -3.82187e-05 
         600      1.65788     0.549701  0.000239002 -3.82097e-05 
         600      1.69757     0.561496  0.000249593 -3.82004e-05 
         600      1.73776     0.573318  0.000260461 -3.81909e-05 
         600      1.77842     0.585146  0.000271593 -3.81812e-05 
         600      1.81952     0.596963  0.000282974 -3.81712e-05 
         600      1.86113     0.608778  0.000294616  -3.8161e-05 
         600      1.90316     0.620562  0.000306491 -3.81505e-05 
         600      1.94571     0.632324  0.000318611 -3.81397e-05 
         600      1.98869     0.644036  0.000330944 -3.81286e-05 
         600      2.03217     0.655704  0.000343501 -3.81173e-05 
         600      2.07612      0.66731   0.00035626 -3.81056e-05 
         600      2.12051     0.678833  0.000369198 -3.80936e-05 
         600       2.1654     0.690281  0.000382322 -3.80812e-05 
         600      2.21073     0.701623  0.000395597 -3.80685e-05 
         600      2.25656     0.712868   0.00040903 -3.80554e-05 
         600      2.30283     0.723985  0.000422583 -3.80419e-05 
         600       2.3496     0.734982  0.000436262  -3.8028e-05 
         600      2.39685     0.745837  0.000450038 -3.80138e-05 
         600      2.44452     0.756532  0.000463882 -3.79991e-05 
         600      2.49271     0.767072  0.000477795  -3.7984e-05 
         600      2.54132     0.777429  0.000491737 -3.79686e-05 
         600      2.59044     0.787611  0.000505709 -3.79528e-05 
         600         2.64     0.797589  0.000519667 -3.79365e-05 
         600      2.69006      0.80737  0.000533609 -3.79199e-05 
         600      2.74056     0.816929  0.000547491 -3.79029e-05 
         600      2.79156     0.826271  0.000561312 -3.78855e-05 
         600      2.84304      0.83538  0.000575037 -3.78677e-05 
         600      2.89494     0.844242   0.00058863 -3.78494e-05 
         600      2.94735     0.852862  0.000602091 -3.78307e-05 
         600       3.0002      0.86122  0.000615374 -3.78116e-05 
         600      3.05355     0.869323  0.000628476 -3.77919e-05 
         600      3.10733     0.877153  0.000641357 -3.77717e-05 
         600      3.16163     0.884717  0.000654016  -3.7751e-05 
         600      3.21639     0.892004  0.000666424 -3.77297e-05 
         600      3.27158     0.899007  0.000678552 -3.77078e-05 
         600      3.32729     0.905734  0.000690403 -3.76854e-05 
         600      3.38342     0.912173  0.000701945 -3.76625e-05 
         600      3.44007     0.918333  0.000713179 -3.76392e-05 
         600      3.49714     0.924205  0.000724074 -3.76157e-05 
         600      3.55472     0.929799   0.00073463 -3.75921e-05 
         600      3.61273     0.935109  0.000744809 -3.75688e-05 
         600      3.67125     0.940145  0.000754603 -3.75464e-05 
         600      3.73025     0.944908  0.000763967 -3.75253e-05 
         600      3.78967     0.949397  0.000772995 -3.74998e-05 
         600      3.84961     0.953626  0.000781661 -3.74728e-05 
         600      3.90996     0.957594  0.000789892  -3.7447e-05 
         600      3.97084     0.961313   0.00079771 -3.74219e-05 
         600      4.03214     0.964784  0.000805111  -3.7397e-05 
         600      4.09395     0.968021  0.000812114 -3.73718e-05 
         600      4.15624      0.97103   0.00081872 -3.73459e-05 
         600      4.21895     0.973817  0.000824933 -3.73193e-05 
         600      4.28217     0.976394   0.00083077 -3.72916e-05 
         600      4.34582     0.978768  0.000836231 -3.72629e-05 
         600      4.40998     0.980953  0.000841334  -3.7233e-05 
         600      4.47457     0.982953  0.000846081 -3.72021e-05 
         600      4.53968     0.984783  0.000850491 -3.71702e-05 
         600      4.60525      0.98645  0.000854569 -3.71374e-05 
         600      4.67125     0.987963  0.000858326 -3.71039e-05 
         600      4.73777     0.989334  0.000861781 -3.70697e-05 
         600       4.8047     0.990571  0.000864942 -3.70352e-05 
         600      4.87216     0.991686  0.000867827 -3.70004e-05 
         600      4.94003     0.992684  0.000870448 -3.69654e-05 
         600      5.00843     0.993578  0.000872823 -3.69304e-05 
         600      5.07724     0.994373  0.000874964 -3.68956e-05 
         600      5.14658      0.99508  0.000876891 -3.68609e-05 
         600      5.21639     0.995705  0.000878617 -3.68264e-05 
         600      5.28661     0.996257  0.000880157 -3.67921e-05 
         600      5.35736     0.996741  0.000881528 -3.67581e-05 
         600      5.42852     0.997165  0.000882744 -3.67243e-05 
         600      5.50021     0.997535  0.000883819 -3.66907e-05 
         600      5.57231     0.997857  0.000884766 -3.66574e-05 
         600      5.64493     0.998136  0.000885599 -3.66245e-05 
         600      5.71803     0.998376  0.000886328 -3.65923e-05 
         600      5.79154     0.998583  0.000886963 -3.65612e-05 
         600      5.86558     0.998759  0.000887516  -3.6525e-05 
         600      5.94003      0.99891  0.000887993 -3.64853e-05 
         600      6.01501     0.999038  0.000888404  -3.6446e-05 
         600       6.0904     0.999146  0.000888757 -3.64071e-05 
         600      6.16632     0.999238   0.00088906 -3.63683e-05 
         600      6.24271     0.999314   0.00088932 -3.63297e-05 
         600       6.3195     0.999378  0.000889543 -3.62913e-05 
         600      6.39683     0.999431  0.000889733 -3.62531e-05 
         600      6.47457     0.999475  0.000889894 -3.62155e-05 
         600      6.55284     0.999511  0.000890029 -3.61786e-05 
         600      6.63152     0.999541  0.000890139 -3.61425e-05 
         600      6.71073     0.999565  0.000890227 -3.61073e-05 
         600      6.79034     0.999585  0.000890295 -3.60731e-05 
         600      6.87049     0.999601  0.000890344 -3.60395e-05 
         600      6.95111     0.999615  0.000890379  -3.6006e-05 
         600      7.03214     0.999625  0.000890406 -3.59719e-05 
         600       7.1137     0.999634  0.000890434 -3.59358e-05 
         600      7.19566     0.999641  0.000890477 -3.58959e-05 
         600      7.27816     0.999646  0.000890554 -3.58498e-05 
         600      7.36106     0.999651  0.000890625 -3.58006e-05 
         600      7.44451     0.999654  0.000890569 -3.57629e-05 
         600      7.52842     0.999657  0.000890539 -3.57232e-05 
         600      7.61273     0.999659  0.000890529 -3.56819e-05 
         600      7.69758     0.999661  0.000890531  -3.5639e-05 
         600      7.78283     0.999662  0.000890543 -3.55949e-05 
         600      7.86862     0.999663  0.000890559 -3.55498e-05 
         600      7.95481     0.999664  0.000890577 -3.55039e-05 
         600      8.04155     0.999665  0.000890593 -3.54575e-05 
         600      8.12868     0.999666  0.000890608  -3.5411e-05 
         600      8.21635     0.999666  0.000890618 -3.53644e-05 
         600      8.30449     0.999667  0.000890625 -3.53181e-05 
         600      8.39303     0.999667  0.000890628 -3.52723e-05 
         600      8.48211     0.999668  0.000890627  -3.5227e-05 
         600      8.57159     0.999668  0.000890623 -3.51824e-05 
         600      8.66161     0.999669  0.000890618 -3.51385e-05 
         600      8.75203     0.999669  0.000890612 -3.50955e-05 
         600      8.84299      0.99967  0.000890606 -3.50531e-05 
         600      8.93443      0.99967  0.000890601 -3.50114e-05 
         600      9.02626     0.999671  0.000890599 -3.49704e-05 
         600      9.11863     0.999671    0.0008906 -3.49298e-05 
         600      9.21139     0.999672  0.000890604 -3.48894e-05 
         600      9.30471     0.999672  0.000890612 -3.48492e-05 
         600      9.39841     0.999672  0.000890623 -3.48088e-05 
         600      9.49267     0.999673  0.000890638  -3.4768e-05 
         600      9.58739     0.999673  0.000890655 -3.47267e-05 
         600      9.68251     0.999674  0.000890674 -3.46846e-05 
         600      9.77817     0.999674  0.000890694 -3.46414e-05 
         600      9.87422     0.999674  0.000890713 -3.45971e-05 
         600      9.97083     0.999675   0.00089073 -3.45515e-05 
         600      10.0678     0.999675  0.000890744 -3.45044e-05 
         600      10.1654     0.999676  0.000890754 -3.44559e-05 
         600      10.2633     0.999676   0.00089076  -3.4406e-05 
         600      10.3618     0.999676  0.000890759 -3.43548e-05 
         600      10.4607     0.999677  0.000890753 -3.43024e-05 
         600      10.5601     0.999677  0.000890741 -3.42493e-05 
         600        10.66     0.999678  0.000890725 -3.41957e-05 
         600      10.7603     0.999678  0.000890706 -3.41423e-05 
         600      10.8611     0.999679  0.000890686 -3.40893e-05 
         600      10.9623     0.999679  0.000890667 -3.40377e-05 
         600      11.0641      0.99968  0.000890651 -3.39881e-05 
         600      11.1663      0.99968   0.00089064 -3.39412e-05 
         600       11.269     0.999681  0.000890635  -3.3898e-05 
         600      11.3721     0.999681  0.000890637 -3.38593e-05 
         600      11.4757     0.999681  0.000890643  -3.3826e-05 
         600      11.5798     0.999682  0.000890726 -3.37911e-05 
         600      11.6844     0.999682  0.000890818 -3.37542e-05 
         600      11.7894     0.999683  0.000890898  -3.3715e-05 
         600       11.895     0.999683  0.000890943 -3.36733e-05 
         600      12.0009     0.999684  0.000890923 -3.36283e-05 
         600      12.1073     0.999684  0.000890796 -3.35789e-05 
         600      12.2142     0.999684   0.00089066 -3.34901e-05 
         600      12.3216     0.999685  0.000890579 -3.33642e-05 
         600      12.4294     0.999685  0.000890493 -3.32588e-05 
         600      12.5378     0.999686  0.000890796 -3.32415e-05 
         600      12.6465     0.999687  0.000890925 -3.32126e-05 
         600      12.7558     0.999687  0.000890949 -3.31751e-05 
         600      12.8656     0.999688  0.000890915 -3.31315e-05 
         600      12.9757     0.999688  0.000890858 -3.30838e-05 
         600      13.0864     0.999689  0.000890801 -3.30335e-05 
         600      13.1975     0.999689  0.000890755 -3.29818e-05 
         600      13.3092      0.99969  0.000890726 -3.29293e-05 
         600      13.4212      0.99969  0.000890716 -3.28766e-05 
         600      13.5338     0.999691  0.000890723 -3.28238e-05 
         600      13.6468     0.999691  0.000890743 -3.27712e-05 
         600      13.7603     0.999692   0.00089077 -3.27186e-05 
         600      13.8743     0.999692    0.0008908  -3.2666e-05 
         600      13.9886     0.999693   0.00089083 -3.26131e-05 
         600      14.1036     0.999693  0.000890856 -3.25597e-05 
         600      14.2189     0.999694  0.000890876 -3.25057e-05 
         600      14.3348     0.999694  0.000890889 -3.24508e-05 
         600       14.451     0.999695  0.000890895  -3.2395e-05 
         600      14.5678     0.999695  0.000890894  -3.2338e-05 
         600      14.6851     0.999696  0.000890889 -3.22799e-05 
         600      14.8028     0.999696  0.000890882 -3.22208e-05 
         600       14.921     0.999697  0.000890873 -3.21606e-05 
         600      15.0396     0.999698  0.000890865 -3.20997e-05 
         600      15.1588     0.999698  0.000890859 -3.20379e-05 
         600      15.2783     0.999699  0.000890856 -3.19758e-05 
         600      15.3984     0.999699  0.000890856 -3.19135e-05 
         600       15.519       0.9997  0.000890859 -3.18512e-05 
         600        15.64     0.999701  0.000890864 -3.17893e-05 
         600      15.7615     0.999701  0.000890871 -3.17278e-05 
         600      15.8834     0.999702  0.000890878  -3.1667e-05 
         600      16.0058     0.999702  0.000890884  -3.1607e-05 
         600      16.1286     0.999703  0.000890889 -3.15479e-05 
         600       16.252     0.999703  0.000890894 -3.14895e-05 
         600      16.3759     0.999704  0.000890898 -3.14318e-05 
         600      16.5002     0.999704  0.000890904 -3.13745e-05 
         600       16.625     0.999705  0.000890914 -3.13174e-05 
         600      16.7501     0.999705  0.000890927   -3.126e-05 
         600      16.8759     0.999706  0.000890945  -3.1202e-05 
         600       17.002     0.999706  0.000890962 -3.11431e-05 
         600      17.1287     0.999707  0.000890968 -3.10828e-05 
         600      17.2557     0.999708  0.000890966 -3.10216e-05 
         600      17.3834     0.999709  0.000890987 -3.09607e-05 
         600      17.5115     0.999709  0.000890982 -3.08986e-05 
         600      17.6399      0.99971  0.000890966 -3.08358e-05 
         600       17.769     0.999711  0.000890949 -3.07725e-05 
         600      17.8984     0.999711  0.000890935  -3.0709e-05 
         600      18.0284     0.999712  0.000890927 -3.06455e-05 
         600      18.1587     0.999712  0.000890926  -3.0582e-05 
         600      18.2896     0.999713  0.000890931 -3.05186e-05 
         600       18.421     0.999714  0.000890939 -3.04554e-05 
         600      18.5528     0.999714   0.00089095 -3.03923e-05 
         600      18.6851     0.999715  0.000890961 -3.03291e-05 
         600      18.8178     0.999716  0.000890972 -3.02659e-05 
         600      18.9511     0.999716  0.000890981 -3.02025e-05 
         600      19.0847     0.999717  0.000890987 -3.01389e-05 
         600      19.2189     0.999717  0.000890992 -3.00747e-05 
         600      19.3535     0.999718  0.000890994 -3.00101e-05 
         600      19.4886     0.999719  0.000890996 -2.99449e-05 
         600      19.6242     0.999719  0.000890999 -2.98789e-05 
         600      19.7602      0.99972  0.000891002 -2.98123e-05 
         600      19.8968      0.99972  0.000891008  -2.9745e-05 
         600      20.0337     0.999721  0.000891017  -2.9677e-05 
         600      20.1712     0.999722   0.00089103 -2.96084e-05 
         600      20.3091     0.999723  0.000891046 -2.95394e-05 
         600      20.4475     0.999723  0.000891066   -2.947e-05 
         600      20.5864     0.999724  0.000891087 -2.94006e-05 
         600      20.7257     0.999725   0.00089111 -2.93314e-05 
         600      20.8655     0.999726  0.000891132 -2.92626e-05 
         600      21.0058     0.999726  0.000891151 -2.91945e-05 
         600      21.1465     0.999727  0.000891165 -2.91273e-05 
         600      21.2877     0.999728  0.000891173 -2.90613e-05 
         600      21.4294     0.999729  0.000891172 -2.89966e-05 
         600      21.5716     0.999729  0.000891163 -2.89331e-05 
         600      21.7142      0.99973  0.000891144 -2.88709e-05 
         600      21.8573      0.99973  0.000891117 -2.88096e-05 
         600      22.0008     0.999731  0.000891084 -2.87486e-05 
         600      22.1449     0.999732  0.000891049 -2.86871e-05 
         600      22.2893     0.999732  0.000891016 -2.86238e-05 
         600      22.4344     0.999733   0.00089099  -2.8557e-05 
         600      22.5797     0.999733  0.000890978 -2.84844e-05 
         600      22.7257     0.999734  0.000890985  -2.8403e-05 
         600      22.8721     0.999735  0.000891015  -2.8309e-05 
         600      23.0189     0.999736  0.000891069  -2.8198e-05 
         600      23.1663     0.999737  0.000891107 -2.81266e-05 
         600       23.314     0.999738  0.000891168 -2.80622e-05 
         600      23.4623     0.999739  0.000891244 -2.79923e-05 
         600       23.611      0.99974  0.000891303 -2.79179e-05 
         600      23.7602     0.999741  0.000891293 -2.78412e-05 
         600        23.91      0.99974  0.000891142  -2.7766e-05 
         600        24.06     0.999741  0.000891063 -2.77412e-05 
         600      24.2107     0.999743  0.000891203 -2.77421e-05 
         600      24.3617     0.999744  0.000891253 -2.77038e-05 
         600      24.5133     0.999745  0.000891272 -2.76327e-05 
         600      24.6653     0.999746  0.000891301 -2.75341e-05 
         600      24.8178     0.999747  0.000891371 -2.74119e-05 
         600      24.9708     0.999747  0.000891318 -2.72849e-05 
         600      25.1242     0.999747  0.000891227 -2.71746e-05 
         600      25.2781     0.999748  0.000891136 -2.70786e-05 
         600      25.4324     0.999748  0.000891061 -2.69942e-05 
         600      25.5873     0.999749  0.000891008 -2.69189e-05 
         600      25.7426      0.99975  0.000890981 -2.68502e-05 
         600      25.8984     0.999751  0.000890982 -2.67859e-05 
         600      26.0546     0.999752  0.000891007 -2.67239e-05 
         600      26.2114     0.999753  0.000891053 -2.66627e-05 
         600      26.3686     0.999753  0.000891113 -2.66006e-05 
         600      26.5262     0.999754   0.00089118 -2.65368e-05 
         600      26.6844     0.999755  0.000891249 -2.64704e-05 
         600      26.8429     0.999756  0.000891312  -2.6401e-05 
         600       27.002     0.999757  0.000891364 -2.63283e-05 
         600      27.1615     0.999758  0.000891401 -2.62526e-05 
         600      27.3216     0.999758   0.00089142 -2.61739e-05 
         600      27.4821     0.999759  0.000891422 -2.60929e-05 
         600       27.643      0.99976  0.000891406 -2.60101e-05 
         600      27.8044     0.999761  0.000891375 -2.59261e-05 
         600      27.9663     0.999762  0.000891334 -2.58417e-05 
         600      28.1287     0.999763  0.000891288 -2.57574e-05 
         600      28.2914     0.999764  0.000891243 -2.56739e-05 
         600      28.4548     0.999764  0.000891204 -2.55914e-05 
         600      28.6185     0.999765  0.000891177 -2.55104e-05 
         600      28.7828     0.999766  0.000891166 -2.54306e-05 
         600      28.9475     0.999767  0.000891174 -2.53521e-05 
         600      29.1126     0.999767  0.000891201 -2.52744e-05 
         600      29.2784     0.999768  0.000891245 -2.51968e-05 
         600      29.4444     0.999768    0.0008913 -2.51188e-05 
         600       29.611     0.999769   0.00089136 -2.50392e-05 
         600       29.778     0.999769  0.000891414 -2.49574e-05 
         600      29.9456      0.99977  0.000891452 -2.48724e-05 
         600      30.1137     0.999771  0.000891464 -2.47839e-05 
         600      30.2821     0.999772  0.000891444  -2.4692e-05 
         600      30.4511     0.999773  0.000891389 -2.45974e-05 
         600      30.6204     0.999775  0.000891312 -2.45019e-05 
         600      30.7903     0.999776  0.000891237 -2.44087e-05 
         600      30.9606     0.999778  0.000891216  -2.4323e-05 
         600      31.1315     0.999778  0.000891331  -2.4252e-05 
         600      31.3028     0.999778   0.00089163 -2.41995e-05 
         600      31.4745     0.999779   0.00089138 -2.41003e-05 
         600      31.6468      0.99978  0.000891243 -2.40134e-05 
         600      31.8194     0.999781  0.000891187 -2.39355e-05 
         600      31.9926     0.999782  0.000891185 -2.38637e-05 
         600      32.1662     0.999783  0.000891215 -2.37956e-05 
         600      32.3404     0.999784  0.000891261 -2.37294e-05 
         600      32.5149     0.999785  0.000891311 -2.36634e-05 
         600        32.69     0.999786  0.000891357 -2.35964e-05 
         600      32.8655     0.999787  0.000891394 -2.35274e-05 
         600      33.0414     0.999788  0.000891418 -2.34556e-05 
         600       33.218     0.999789   0.00089143 -2.33805e-05 
         600      33.3948      0.99979  0.000891429 -2.33018e-05 
         600      33.5723     0.999791  0.000891418 -2.32193e-05 
         600        33.75     0.999792    0.0008914 -2.31331e-05 
         600      33.9284     0.999793  0.000891376 -2.30432e-05 
         600      34.1073     0.999794  0.000891351 -2.29499e-05 
         600      34.2865     0.999795  0.000891327 -2.28538e-05 
         600      34.4663     0.999796  0.000891306 -2.27554e-05 
         600      34.6465     0.999797  0.000891291 -2.26554e-05 
         600      34.8272     0.999798  0.000891281 -2.25544e-05 
         600      35.0083     0.999799   0.00089128 -2.24534e-05 
         600        35.19       0.9998  0.000891286 -2.23533e-05 
         600      35.3721     0.999801  0.000891299 -2.22549e-05 
         600      35.5546     0.999801  0.000891319 -2.21594e-05 
         600      35.7377     0.999802  0.000891345 -2.20674e-05 
         600      35.9211     0.999803  0.000891375 -2.19798e-05 
         600      36.1052     0.999804  0.000891409 -2.18969e-05 
         600      36.2895     0.999805  0.000891445 -2.18193e-05 
         600      36.4745     0.999807  0.000891482 -2.17466e-05 
         600      36.6598     0.999808  0.000891519 -2.16783e-05 
         600      36.8457     0.999809  0.000891554 -2.16129e-05 
         600      37.0321      0.99981  0.000891586 -2.15482e-05 
         600      37.2188     0.999811  0.000891612 -2.14812e-05 
         600      37.4062     0.999812  0.000891628 -2.14071e-05 
         600      37.5938     0.999813  0.000891628   -2.132e-05 
         600      37.7821     0.999814  0.000891604 -2.12118e-05 
         600      37.9707     0.999815  0.000891541 -2.10725e-05 
         600      38.1599     0.999816  0.000891419 -2.08892e-05 
         600      38.3496     0.999818  0.000891401 -2.08181e-05 
         600      38.5396     0.999819  0.000891416 -2.07766e-05 
         600      38.7302      0.99982  0.000891416 -2.07136e-05 
         600      38.9211      0.99982  0.000891408 -2.06337e-05 
         600      39.1127     0.999821  0.000891399 -2.05408e-05 
         600      39.3046     0.999822  0.000891393 -2.04387e-05 
         600      39.4971     0.999822  0.000891393 -2.03305e-05 
         600      39.6899     0.999823  0.000891399 -2.02192e-05 
         600      39.8833     0.999823  0.000891408 -2.01068e-05 
         600      40.0772     0.999825  0.000891418 -1.99951e-05 
         600      40.2714     0.999826  0.000891426 -1.98853e-05 
         600      40.4663     0.999828  0.000891427 -1.97774e-05 
         600      40.6615     0.999829  0.000891425 -1.96708e-05 
         600      40.8573     0.999831  0.000891425 -1.95635e-05 
         600      41.0534     0.999832  0.000891447 -1.94524e-05 
         600      41.2501     0.999832  0.000891522 -1.93323e-05 
         600      41.4473     0.999832  0.000891373   -1.923e-05 
         600      41.6448     0.999833   0.00089136 -1.91411e-05 
         600      41.8429     0.999835  0.000891434  -1.9059e-05 
         600      42.0414     0.999836  0.000891535   -1.898e-05 
         600      42.2405     0.999837  0.000891625 -1.89016e-05 
         600      42.4399     0.999839  0.000891682 -1.88218e-05 
         600      42.6399      0.99984  0.000891701 -1.87395e-05 
         600      42.8404     0.999842  0.000891683 -1.86542e-05 
         600      43.0412     0.999843  0.000891637 -1.85657e-05 
         600      43.2426     0.999844  0.000891572 -1.84743e-05 
         600      43.4444     0.999846  0.000891502 -1.83809e-05 
         600      43.6467     0.999847  0.000891438 -1.82861e-05 
         600      43.8494     0.999848  0.000891391 -1.81914e-05 
         600      44.0527     0.999849  0.000891369  -1.8098e-05 
         600      44.2563      0.99985  0.000891376 -1.80076e-05 
         600      44.4606     0.999851  0.000891415 -1.79218e-05 
         600      44.6653     0.999852  0.000891488 -1.78425e-05 
         600      44.8704     0.999853  0.000891593  -1.7772e-05 
         600       45.076     0.999854  0.000891729 -1.77123e-05 
         600       45.282     0.999854  0.000891894  -1.7666e-05 
         600      45.4886     0.999856  0.000891915 -1.75318e-05 
         600      45.6955     0.999857  0.000891856 -1.73677e-05 
         600       45.903     0.999859  0.000891797 -1.72203e-05 
         600      46.1111      0.99986  0.000891742 -1.70886e-05 
         600      46.3194     0.999861  0.000891693 -1.69707e-05 
         600      46.5283     0.999862   0.00089165 -1.68643e-05 
         600      46.7376     0.999863  0.000891611 -1.67673e-05 
         600      46.9475     0.999864  0.000891577 -1.66769e-05 
         600      47.1577     0.999865  0.000891545 -1.65908e-05 
         600      47.3685     0.999866  0.000891518 -1.65066e-05 
         600      47.5798     0.999867  0.000891495  -1.6422e-05 
         600      47.7914     0.999868  0.000891479 -1.63352e-05 
         600      48.0037     0.999869  0.000891473 -1.62445e-05 