Variables = x, y, u, v, p

Zone, I=800, F=POINT
         350            0            0            0 -5.71976e-05 
         350     0.000234  9.38281e-05  8.07578e-12 -5.71975e-05 
         350     0.000939  0.000376515  1.30088e-10 -5.71973e-05 
         350     0.002113   0.00084726  6.58767e-10 -5.71969e-05 
         350     0.003759   0.00150727   2.0849e-09 -5.71965e-05 
         350     0.005872   0.00235453  5.08764e-09 -5.71958e-05 
         350     0.008457   0.00339105  1.05531e-08 -5.71951e-05 
         350      0.01151   0.00461523  1.95478e-08 -5.71942e-05 
         350     0.015036   0.00602907   3.3359e-08 -5.71931e-05 
         350     0.019031   0.00763098  5.34409e-08  -5.7192e-05 
         350     0.023493   0.00942014  8.14387e-08 -5.71906e-05 
         350     0.028429    0.0113994  1.19256e-07 -5.71892e-05 
         350     0.033831    0.0135655  1.68884e-07 -5.71876e-05 
         350     0.039706    0.0159212  2.32635e-07 -5.71858e-05 
         350     0.046047    0.0184638  3.12874e-07  -5.7184e-05 
         350     0.052863    0.0211969  4.12358e-07  -5.7182e-05 
         350      0.06015    0.0241188  5.33882e-07 -5.71798e-05 
         350       0.0679    0.0272264  6.80327e-07 -5.71775e-05 
         350     0.076126    0.0305248  8.55161e-07 -5.71751e-05 
         350     0.084816    0.0340093  1.06155e-06 -5.71725e-05 
         350     0.093982    0.0376846   1.3034e-06 -5.71698e-05 
         350     0.103611    0.0415456  1.58418e-06  -5.7167e-05 
         350     0.113718    0.0455981  1.90833e-06  -5.7164e-05 
         350     0.124286    0.0498355  2.27952e-06 -5.71609e-05 
         350     0.135333    0.0542648  2.70276e-06 -5.71576e-05 
         350      0.14685    0.0588824  3.18236e-06 -5.71542e-05 
         350     0.158827    0.0636843  3.72263e-06 -5.71507e-05 
         350     0.171284    0.0686784  4.32945e-06  -5.7147e-05 
         350     0.184201    0.0738567  5.00704e-06 -5.71432e-05 
         350     0.197599    0.0792274  5.76184e-06 -5.71392e-05 
         350     0.211455    0.0847814  6.59813e-06 -5.71351e-05 
         350     0.225792    0.0905277  7.52303e-06 -5.71309e-05 
         350       0.2406    0.0964621  8.54191e-06 -5.71265e-05 
         350     0.255865     0.102579  9.65983e-06  -5.7122e-05 
         350     0.271613     0.108888  1.08851e-05 -5.71173e-05 
         350     0.287818      0.11538   1.2222e-05 -5.71125e-05 
         350     0.304506     0.122063  1.36795e-05 -5.71076e-05 
         350      0.32165     0.128928   1.5262e-05 -5.71025e-05 
         350     0.339278     0.135985  1.69791e-05 -5.70973e-05 
         350     0.357377     0.143228   1.8837e-05 -5.70919e-05 
         350      0.37593      0.15065   2.0841e-05 -5.70864e-05 
         350     0.394968     0.158263   2.3002e-05 -5.70807e-05 
         350     0.414461     0.166055  2.53243e-05 -5.70749e-05 
         350      0.43444     0.174037  2.78194e-05  -5.7069e-05 
         350     0.454872     0.182196  3.04911e-05 -5.70629e-05 
         350     0.475791     0.190544  3.33519e-05 -5.70566e-05 
         350     0.497163     0.199066  3.64055e-05 -5.70502e-05 
         350     0.519021     0.207776  3.96648e-05 -5.70437e-05 
         350      0.54135     0.216666  4.31362e-05  -5.7037e-05 
         350     0.564131     0.225726  4.68249e-05 -5.70301e-05 
         350       0.5874     0.234971  5.07454e-05 -5.70231e-05 
         350     0.611121     0.244384  5.49005e-05 -5.70159e-05 
         350      0.63533     0.253979  5.93048e-05 -5.70085e-05 
         350      0.65999     0.263738  6.39602e-05 -5.70011e-05 
         350     0.685139     0.273674  6.88827e-05 -5.69934e-05 
         350     0.710759     0.283779  7.40777e-05 -5.69856e-05 
         350     0.736828     0.294042  7.95491e-05 -5.69776e-05 
         350     0.763387     0.304475  8.53139e-05 -5.69694e-05 
         350     0.790396     0.315061  9.13719e-05 -5.69609e-05 
         350     0.817896     0.325812  9.77403e-05 -5.69523e-05 
         350     0.845843     0.336709  0.000104417 -5.69435e-05 
         350     0.874283     0.347765  0.000111421 -5.69345e-05 
         350      0.90317     0.358958  0.000118748 -5.69253e-05 
         350     0.932551     0.370304  0.000126417 -5.69159e-05 
         350     0.962401     0.381787   0.00013443 -5.69063e-05 
         350     0.992697     0.393394  0.000142787 -5.68965e-05 
         350      1.02349     0.405138  0.000151506 -5.68865e-05 
         350      1.05472     0.416996   0.00016058 -5.68762e-05 
         350      1.08645      0.42898  0.000170027 -5.68657e-05 
         350      1.11863     0.441065  0.000179838 -5.68548e-05 
         350       1.1513     0.453263  0.000190032 -5.68437e-05 
         350      1.18444     0.465558  0.000200603 -5.68322e-05 
         350      1.21802     0.477933  0.000211546 -5.68204e-05 
         350      1.25211       0.4904  0.000222879 -5.68083e-05 
         350      1.28663     0.502929  0.000234583  -5.6796e-05 
         350      1.32165     0.515533  0.000246679 -5.67833e-05 
         350      1.35712     0.528181  0.000259145 -5.67703e-05 
         350      1.39308     0.540886  0.000271997 -5.67569e-05 
         350      1.42951     0.553625  0.000285223 -5.67431e-05 
         350      1.46638      0.56638  0.000298805 -5.67286e-05 
         350      1.50375     0.579158  0.000312755 -5.67131e-05 
         350      1.54156      0.59193  0.000327061 -5.67021e-05 
         350      1.57987     0.604701  0.000341717 -5.66883e-05 
         350      1.61863     0.617441  0.000356691 -5.66721e-05 
         350      1.65788     0.630158  0.000371995 -5.66543e-05 
         350      1.69757     0.642817  0.000387594 -5.66356e-05 
         350      1.73776     0.655426  0.000403498 -5.66164e-05 
         350      1.77842     0.667962  0.000419679 -5.65971e-05 
         350      1.81952       0.6804  0.000436104 -5.65777e-05 
         350      1.86113     0.692747  0.000452781 -5.65583e-05 
         350      1.90316      0.70497  0.000469661 -5.65391e-05 
         350      1.94571     0.717072  0.000486747 -5.65197e-05 
         350      1.98869     0.729021  0.000503987 -5.65001e-05 
         350      2.03217     0.740822  0.000521383 -5.64801e-05 
         350      2.07612     0.752452  0.000538893 -5.64596e-05 
         350      2.12051     0.763886  0.000556474 -5.64382e-05 
         350       2.1654     0.775129  0.000574124 -5.64159e-05 
         350      2.21073     0.786151  0.000591786 -5.63925e-05 
         350      2.25656     0.796956  0.000609454 -5.63679e-05 
         350      2.30283     0.807514  0.000627069 -5.63421e-05 
         350       2.3496     0.817829  0.000644625  -5.6315e-05 
         350      2.39685     0.827883  0.000662077 -5.62867e-05 
         350      2.44452     0.837655  0.000679376 -5.62573e-05 
         350      2.49271     0.847152  0.000696517 -5.62269e-05 
         350      2.54132     0.856349  0.000713439 -5.61957e-05 
         350      2.59044     0.865253  0.000730136 -5.61639e-05 
         350         2.64     0.873842  0.000746549 -5.61317e-05 
         350      2.69006     0.882124  0.000762673 -5.60991e-05 
         350      2.74056     0.890078   0.00077845 -5.60665e-05 
         350      2.79156     0.897715  0.000793877 -5.60337e-05 
         350      2.84304     0.905024  0.000808913 -5.60009e-05 
         350      2.89494     0.911997   0.00082352 -5.59679e-05 
         350      2.94735     0.918646  0.000837697 -5.59346e-05 
         350       3.0002     0.924959  0.000851399 -5.59007e-05 
         350      3.05355     0.930949  0.000864627 -5.58658e-05 
         350      3.10733     0.936608  0.000877345 -5.58296e-05 
         350      3.16163      0.94195  0.000889559 -5.57916e-05 
         350      3.21639     0.946974  0.000901245 -5.57515e-05 
         350      3.27158     0.951683  0.000912388 -5.57092e-05 
         350      3.32729     0.956091     0.000923 -5.56647e-05 
         350      3.38342     0.960199   0.00093306 -5.56189e-05 
         350      3.44007     0.964023  0.000942584 -5.55729e-05 
         350      3.49714     0.967565  0.000951555 -5.55293e-05 
         350      3.55472     0.970843   0.00095999 -5.54917e-05 
         350      3.61273      0.97386  0.000967873 -5.54658e-05 
         350      3.67125     0.976634  0.000975212 -5.54595e-05 
         350      3.73025     0.979173  0.000981992  -5.5484e-05 
         350      3.78967     0.981489  0.000988318 -5.54447e-05 
         350      3.84961     0.983597  0.000994281 -5.53103e-05 
         350      3.90996     0.985506  0.000999746 -5.52109e-05 
         350      3.97084     0.987231   0.00100474 -5.51365e-05 
         350      4.03214     0.988783   0.00100929 -5.50793e-05 
         350      4.09395     0.990175   0.00101341 -5.50331e-05 
         350      4.15624     0.991418   0.00101714 -5.49929e-05 
         350      4.21895     0.992524    0.0010205 -5.49551e-05 
         350      4.28217     0.993506   0.00102352  -5.4917e-05 
         350      4.34582     0.994371   0.00102623  -5.4877e-05 
         350      4.40998     0.995134   0.00102866 -5.48341e-05 
         350      4.47457     0.995801   0.00103082  -5.4788e-05 
         350      4.53968     0.996384   0.00103274 -5.47385e-05 
         350      4.60525      0.99689   0.00103444 -5.46861e-05 
         350      4.67125     0.997328   0.00103594 -5.46313e-05 
         350      4.73777     0.997705   0.00103725 -5.45747e-05 
         350       4.8047     0.998028    0.0010384  -5.4517e-05 
         350      4.87216     0.998305    0.0010394 -5.44588e-05 
         350      4.94003      0.99854   0.00104026 -5.44005e-05 
         350      5.00843     0.998738   0.00104099 -5.43425e-05 
         350      5.07724     0.998906   0.00104162 -5.42851e-05 
         350      5.14658     0.999046   0.00104215 -5.42281e-05 
         350      5.21639     0.999164   0.00104259 -5.41717e-05 
         350      5.28661     0.999261   0.00104296 -5.41155e-05 
         350      5.35736     0.999341   0.00104327 -5.40594e-05 
         350      5.42852     0.999407   0.00104353  -5.4003e-05 
         350      5.50021     0.999462   0.00104375 -5.39461e-05 
         350      5.57231     0.999506   0.00104393 -5.38885e-05 
         350      5.64493     0.999541   0.00104409   -5.383e-05 
         350      5.71803      0.99957   0.00104422 -5.37708e-05 
         350      5.79154     0.999593   0.00104433 -5.37109e-05 
         350      5.86558     0.999612   0.00104442 -5.36506e-05 
         350      5.94003     0.999627   0.00104449 -5.35903e-05 
         350      6.01501     0.999638   0.00104454 -5.35299e-05 
         350       6.0904     0.999647   0.00104458 -5.34696e-05 
         350      6.16632     0.999655   0.00104463 -5.34112e-05 
         350      6.24271      0.99966   0.00104466  -5.3351e-05 
         350       6.3195     0.999665   0.00104468 -5.32896e-05 
         350      6.39683     0.999668    0.0010447 -5.32272e-05 
         350      6.47457     0.999671   0.00104472 -5.31642e-05 
         350      6.55284     0.999673   0.00104475 -5.31007e-05 
         350      6.63152     0.999675   0.00104478 -5.30368e-05 
         350      6.71073     0.999676    0.0010448 -5.29724e-05 
         350      6.79034     0.999677   0.00104483 -5.29077e-05 
         350      6.87049     0.999678   0.00104484 -5.28426e-05 
         350      6.95111     0.999679   0.00104486  -5.2777e-05 
         350      7.03214     0.999679   0.00104486  -5.2711e-05 
         350       7.1137      0.99968   0.00104486 -5.26446e-05 
         350      7.19566      0.99968   0.00104486  -5.2578e-05 
         350      7.27816     0.999681   0.00104486 -5.25111e-05 
         350      7.36106     0.999681   0.00104486 -5.24441e-05 
         350      7.44451     0.999682   0.00104486  -5.2377e-05 
         350      7.52842     0.999682   0.00104488 -5.23098e-05 
         350      7.61273     0.999682    0.0010449 -5.22427e-05 
         350      7.69758     0.999683   0.00104493 -5.21754e-05 
         350      7.78283     0.999683   0.00104496  -5.2108e-05 
         350      7.86862     0.999683   0.00104499 -5.20401e-05 
         350      7.95481     0.999684   0.00104501 -5.19717e-05 
         350      8.04155     0.999684   0.00104501 -5.19022e-05 
         350      8.12868     0.999684   0.00104497 -5.18313e-05 
         350      8.21635     0.999685   0.00104501 -5.17618e-05 
         350      8.30449     0.999685   0.00104505 -5.16885e-05 
         350      8.39303     0.999685   0.00104506  -5.1613e-05 
         350      8.48211     0.999686   0.00104507 -5.15372e-05 
         350      8.57159     0.999686   0.00104508 -5.14627e-05 
         350      8.66161     0.999686   0.00104508 -5.13902e-05 
         350      8.75203     0.999687   0.00104508 -5.13198e-05 
         350      8.84299     0.999687   0.00104508 -5.12506e-05 
         350      8.93443     0.999687   0.00104508 -5.11808e-05 
         350      9.02626     0.999688   0.00104508  -5.1107e-05 
         350      9.11863     0.999688   0.00104509 -5.10239e-05 
         350      9.21139     0.999689   0.00104509 -5.09487e-05 
         350      9.30471     0.999689   0.00104509 -5.08739e-05 
         350      9.39841     0.999689    0.0010451 -5.07942e-05 
         350      9.49267      0.99969   0.00104512  -5.0712e-05 
         350      9.58739      0.99969   0.00104515 -5.06275e-05 
         350      9.68251      0.99969    0.0010452 -5.05387e-05 
         350      9.77817     0.999691   0.00104522 -5.04631e-05 
         350      9.87422     0.999691   0.00104519 -5.04017e-05 
         350      9.97083     0.999692   0.00104517 -5.03276e-05 
         350      10.0678     0.999692   0.00104518 -5.02444e-05 
         350      10.1654     0.999692    0.0010452 -5.01555e-05 
         350      10.2633     0.999693   0.00104523 -5.00647e-05 
         350      10.3618     0.999693   0.00104527 -4.99746e-05 
         350      10.4607     0.999693   0.00104531 -4.98876e-05 
         350      10.5601     0.999694   0.00104535 -4.98051e-05 
         350        10.66     0.999694   0.00104538 -4.97275e-05 
         350      10.7603     0.999695    0.0010454 -4.96544e-05 
         350      10.8611     0.999695    0.0010454 -4.95846e-05 
         350      10.9623     0.999696   0.00104539 -4.95167e-05 
         350      11.0641     0.999696   0.00104538 -4.94486e-05 
         350      11.1663     0.999696   0.00104536 -4.93783e-05 
         350       11.269     0.999697   0.00104535 -4.93041e-05 
         350      11.3721     0.999697   0.00104534 -4.92247e-05 
         350      11.4757     0.999698   0.00104535 -4.91394e-05 
         350      11.5798     0.999698   0.00104537 -4.90485e-05 
         350      11.6844     0.999699    0.0010454 -4.89535e-05 
         350      11.7894     0.999699   0.00104544 -4.88563e-05 
         350       11.895     0.999699   0.00104549 -4.87599e-05 
         350      12.0009       0.9997   0.00104553 -4.86677e-05 
         350      12.1073       0.9997   0.00104555 -4.85823e-05 
         350      12.2142     0.999701   0.00104556 -4.85057e-05 
         350      12.3216     0.999701   0.00104555 -4.84368e-05 
         350      12.4294     0.999702   0.00104551 -4.83705e-05 
         350      12.5378     0.999702   0.00104548 -4.82952e-05 
         350      12.6465     0.999703    0.0010455 -4.81906e-05 
         350      12.7558     0.999703   0.00104563 -4.80234e-05 
         350      12.8656     0.999703   0.00104557 -4.79793e-05 
         350      12.9757     0.999704   0.00104552 -4.79312e-05 
         350      13.0864     0.999705   0.00104555 -4.78409e-05 
         350      13.1975     0.999705   0.00104561 -4.77305e-05 
         350      13.3092     0.999705   0.00104567 -4.76152e-05 
         350      13.4212     0.999706   0.00104572 -4.75049e-05 
         350      13.5338     0.999706   0.00104575 -4.74048e-05 
         350      13.6468     0.999707   0.00104576 -4.73162e-05 
         350      13.7603     0.999707   0.00104574 -4.72371e-05 
         350      13.8743     0.999708   0.00104572 -4.71622e-05 
         350      13.9886     0.999708   0.00104569 -4.70832e-05 
         350      14.1036     0.999709   0.00104569 -4.69881e-05 
         350      14.2189      0.99971    0.0010457 -4.68812e-05 
         350      14.3348      0.99971    0.0010457 -4.68193e-05 
         350       14.451      0.99971   0.00104573 -4.67418e-05 
         350      14.5678     0.999711   0.00104577 -4.66531e-05 
         350      14.6851     0.999711    0.0010458 -4.65567e-05 
         350      14.8028     0.999712   0.00104581 -4.64555e-05 
         350       14.921     0.999712   0.00104581 -4.63514e-05 
         350      15.0396     0.999713   0.00104581 -4.62459e-05 
         350      15.1588     0.999713   0.00104581 -4.61403e-05 
         350      15.2783     0.999714   0.00104581 -4.60355e-05 
         350      15.3984     0.999714   0.00104583 -4.59319e-05 
         350       15.519     0.999715   0.00104586 -4.58301e-05 
         350        15.64     0.999715   0.00104589   -4.573e-05 
         350      15.7615     0.999716   0.00104593 -4.56314e-05 
         350      15.8834     0.999716   0.00104597 -4.55338e-05 
         350      16.0058     0.999717     0.001046 -4.54363e-05 
         350      16.1286     0.999718   0.00104602 -4.53382e-05 
         350       16.252     0.999718   0.00104603 -4.52383e-05 
         350      16.3759     0.999719   0.00104603  -4.5136e-05 
         350      16.5002     0.999719   0.00104602  -4.5031e-05 
         350       16.625      0.99972   0.00104601  -4.4924e-05 
         350      16.7501      0.99972   0.00104599 -4.48173e-05 
         350      16.8759      0.99972   0.00104596 -4.47154e-05 
         350       17.002     0.999721   0.00104598 -4.46062e-05 
         350      17.1287     0.999722   0.00104601 -4.44995e-05 
         350      17.2557     0.999723   0.00104603 -4.43959e-05 
         350      17.3834     0.999723   0.00104605 -4.42948e-05 
         350      17.5115     0.999724   0.00104607 -4.41953e-05 
         350      17.6399     0.999724   0.00104608 -4.40964e-05 
         350       17.769     0.999725    0.0010461 -4.39965e-05 
         350      17.8984     0.999725   0.00104613 -4.38945e-05 
         350      18.0284     0.999726   0.00104616 -4.37894e-05 
         350      18.1587     0.999727   0.00104619 -4.36808e-05 
         350      18.2896     0.999727   0.00104622 -4.35686e-05 
         350       18.421     0.999728   0.00104625 -4.34535e-05 
         350      18.5528     0.999729   0.00104627 -4.33367e-05 
         350      18.6851     0.999729   0.00104627 -4.32198e-05 
         350      18.8178      0.99973   0.00104627 -4.31051e-05 
         350      18.9511      0.99973   0.00104626 -4.29945e-05 
         350      19.0847     0.999731   0.00104625 -4.28898e-05 
         350      19.2189     0.999731   0.00104626 -4.27919e-05 
         350      19.3535     0.999732   0.00104629 -4.27002e-05 
         350      19.4886     0.999733   0.00104634 -4.26114e-05 
         350      19.6242     0.999733   0.00104638 -4.25186e-05 
         350      19.7602     0.999734   0.00104636 -4.24105e-05 
         350      19.8968     0.999734   0.00104616 -4.22685e-05 
         350      20.0337     0.999735   0.00104629 -4.21756e-05 
         350      20.1712     0.999735    0.0010464 -4.20725e-05 
         350      20.3091     0.999736   0.00104643 -4.19507e-05 
         350      20.4475     0.999737   0.00104642 -4.18183e-05 
         350      20.5864     0.999737    0.0010464 -4.16817e-05 
         350      20.7257     0.999738   0.00104638 -4.15459e-05 
         350      20.8655     0.999739   0.00104637 -4.14134e-05 
         350      21.0058     0.999739   0.00104639 -4.12859e-05 
         350      21.1465      0.99974   0.00104642  -4.1163e-05 
         350      21.2877     0.999741   0.00104646 -4.10438e-05 
         350      21.4294     0.999741   0.00104652 -4.09264e-05 
         350      21.5716     0.999742   0.00104659 -4.08091e-05 
         350      21.7142     0.999743   0.00104666 -4.06907e-05 
         350      21.8573     0.999743   0.00104673  -4.0571e-05 
         350      22.0008     0.999744   0.00104679 -4.04527e-05 
         350      22.1449     0.999745   0.00104682 -4.03415e-05 
         350      22.2893     0.999745   0.00104681 -4.02485e-05 
         350      22.4344     0.999746   0.00104671 -4.01906e-05 
         350      22.5797     0.999747   0.00104661  -4.0095e-05 
         350      22.7257     0.999747   0.00104665 -3.98918e-05 
         350      22.8721     0.999748   0.00104664 -3.97332e-05 
         350      23.0189     0.999748   0.00104659 -3.96042e-05 
         350      23.1663     0.999749   0.00104652 -3.94926e-05 
         350       23.314      0.99975   0.00104647 -3.93894e-05 
         350      23.4623     0.999751   0.00104645 -3.92875e-05 
         350       23.611     0.999752   0.00104647 -3.91824e-05 
         350      23.7602     0.999753   0.00104653 -3.90707e-05 
         350        23.91     0.999753   0.00104663 -3.89514e-05 
         350        24.06     0.999754   0.00104674 -3.88244e-05 
         350      24.2107     0.999755   0.00104686 -3.86905e-05 
         350      24.3617     0.999755   0.00104697 -3.85518e-05 
         350      24.5133     0.999756   0.00104704 -3.84102e-05 
         350      24.6653     0.999757   0.00104706 -3.82686e-05 
         350      24.8178     0.999757   0.00104704 -3.81293e-05 
         350      24.9708     0.999758   0.00104698 -3.79948e-05 
         350      25.1242     0.999759   0.00104689  -3.7867e-05 
         350      25.2781      0.99976    0.0010468 -3.77467e-05 
         350      25.4324     0.999761   0.00104673 -3.76344e-05 
         350      25.5873     0.999762   0.00104672 -3.75286e-05 
         350      25.7426     0.999763   0.00104677  -3.7427e-05 
         350      25.8984     0.999763   0.00104689 -3.73251e-05 
         350      26.0546     0.999764   0.00104702 -3.72168e-05 
         350      26.2114     0.999764   0.00104705 -3.70934e-05 
         350      26.3686     0.999765   0.00104681  -3.6944e-05 
         350      26.5262     0.999765   0.00104656 -3.67926e-05 
         350      26.6844     0.999766   0.00104707 -3.66954e-05 
         350      26.8429     0.999767   0.00104722 -3.65747e-05 
         350       27.002     0.999768   0.00104717 -3.64356e-05 
         350      27.1615     0.999769   0.00104706  -3.6284e-05 
         350      27.3216      0.99977   0.00104695 -3.61258e-05 
         350      27.4821     0.999771   0.00104689 -3.59671e-05 
         350       27.643     0.999771   0.00104687 -3.58132e-05 
         350      27.8044     0.999772    0.0010469 -3.56683e-05 
         350      27.9663     0.999773   0.00104696 -3.55354e-05 
         350      28.1287     0.999773   0.00104704 -3.54144e-05 
         350      28.2914     0.999774   0.00104712 -3.53024e-05 
         350      28.4548     0.999775   0.00104719 -3.51912e-05 
         350      28.6185     0.999776   0.00104722 -3.50669e-05 
         350      28.7828     0.999776   0.00104722 -3.49072e-05 
         350      28.9475     0.999776   0.00104717 -3.47021e-05 
         350      29.1126     0.999777   0.00104709 -3.46409e-05 
         350      29.2784     0.999779   0.00104705 -3.45147e-05 
         350      29.4444     0.999779   0.00104706 -3.43573e-05 
         350       29.611      0.99978   0.00104712 -3.41908e-05 
         350       29.778     0.999781   0.00104719 -3.40292e-05 
         350      29.9456     0.999782   0.00104727  -3.3879e-05 
         350      30.1137     0.999782   0.00104732 -3.37421e-05 
         350      30.2821     0.999783   0.00104735 -3.36166e-05 
         350      30.4511     0.999784   0.00104734  -3.3498e-05 
         350      30.6204     0.999785   0.00104732 -3.33814e-05 
         350      30.7903     0.999786   0.00104728 -3.32614e-05 
         350      30.9606     0.999787   0.00104725 -3.31337e-05 
         350      31.1315     0.999788   0.00104724  -3.2995e-05 
         350      31.3028     0.999789   0.00104724 -3.28438e-05 
         350      31.4745      0.99979   0.00104727 -3.26808e-05 
         350      31.6468     0.999791   0.00104732  -3.2508e-05 
         350      31.8194     0.999792   0.00104738 -3.23298e-05 
         350      31.9926     0.999793   0.00104743  -3.2151e-05 
         350      32.1662     0.999793   0.00104747 -3.19779e-05 
         350      32.3404     0.999794   0.00104748 -3.18157e-05 
         350      32.5149     0.999794   0.00104746 -3.16691e-05 
         350        32.69     0.999795   0.00104742 -3.15399e-05 
         350      32.8655     0.999796   0.00104737 -3.14262e-05 
         350      33.0414     0.999797   0.00104733 -3.13209e-05 
         350       33.218     0.999798   0.00104733 -3.12093e-05 
         350      33.3948     0.999799   0.00104739 -3.10681e-05 
         350      33.5723       0.9998   0.00104748 -3.08622e-05 
         350        33.75       0.9998   0.00104752 -3.05439e-05 
         350      33.9284     0.999802   0.00104735 -3.06098e-05 
         350      34.1073     0.999804   0.00104746 -3.06673e-05 
         350      34.2865     0.999805   0.00104777  -3.0592e-05 
         350      34.4663     0.999806   0.00104817 -3.03084e-05 
         350      34.6465     0.999806   0.00104806 -3.00782e-05 
         350      34.8272     0.999807   0.00104771 -2.99435e-05 
         350      35.0083     0.999807   0.00104746  -2.9767e-05 
         350        35.19     0.999808   0.00104732 -2.95753e-05 
         350      35.3721     0.999809   0.00104729 -2.93854e-05 
         350      35.5546      0.99981   0.00104733 -2.92065e-05 
         350      35.7377     0.999811   0.00104742  -2.9042e-05 
         350      35.9211     0.999812   0.00104753 -2.88916e-05 
         350      36.1052     0.999813   0.00104765 -2.87522e-05 
         350      36.2895     0.999814   0.00104774 -2.86201e-05 
         350      36.4745     0.999815   0.00104781 -2.84907e-05 
         350      36.6598     0.999816   0.00104785 -2.83602e-05 
         350      36.8457     0.999816   0.00104786 -2.82256e-05 
         350      37.0321     0.999817   0.00104785 -2.80849e-05 
         350      37.2188     0.999818   0.00104781 -2.79378e-05 
         350      37.4062     0.999819   0.00104778 -2.77846e-05 
         350      37.5938      0.99982   0.00104774  -2.7627e-05 
         350      37.7821     0.999821   0.00104772 -2.74671e-05 
         350      37.9707     0.999822    0.0010477 -2.73074e-05 
         350      38.1599     0.999823    0.0010477 -2.71501e-05 
         350      38.3496     0.999825   0.00104772 -2.69971e-05 
         350      38.5396     0.999826   0.00104774 -2.68492e-05 
         350      38.7302     0.999827   0.00104776 -2.67058e-05 
         350      38.9211     0.999828   0.00104778 -2.65652e-05 
         350      39.1127     0.999829   0.00104778 -2.64238e-05 
         350      39.3046     0.999829   0.00104778 -2.62771e-05 
         350      39.4971      0.99983   0.00104778 -2.61195e-05 
         350      39.6899      0.99983   0.00104777 -2.59458e-05 
         350      39.8833     0.999831   0.00104777 -2.57514e-05 
         350      40.0772     0.999831   0.00104781  -2.5535e-05 
         350      40.2714     0.999832   0.00104787 -2.53004e-05 
         350      40.4663     0.999834   0.00104797 -2.50584e-05 
         350      40.6615     0.999835   0.00104808 -2.48317e-05 
         350      40.8573     0.999837   0.00104814 -2.46575e-05 
         350      41.0534     0.999839     0.001048 -2.45939e-05 
         350      41.2501      0.99984   0.00104801 -2.43544e-05 
         350      41.4473     0.999841   0.00104793 -2.41144e-05 
         350      41.6448     0.999841   0.00104774 -2.39465e-05 
         350      41.8429     0.999842   0.00104754 -2.38331e-05 
         350      42.0414     0.999843   0.00104738 -2.37576e-05 
         350      42.2405     0.999844   0.00104732 -2.37021e-05 
         350      42.4399     0.999846   0.00104737 -2.36466e-05 
         350      42.6399     0.999847   0.00104752 -2.35673e-05 
         350      42.8404     0.999847   0.00104768 -2.34346e-05 
         350      43.0412     0.999847   0.00104774 -2.32599e-05 
         350      43.2426     0.999848   0.00104778 -2.30988e-05 
         350      43.4444      0.99985   0.00104784 -2.29382e-05 
         350      43.6467     0.999851   0.00104792  -2.2773e-05 
         350      43.8494     0.999853   0.00104802 -2.26006e-05 
         350      44.0527     0.999854   0.00104814 -2.24188e-05 
         350      44.2563     0.999856   0.00104824 -2.22276e-05 
         350      44.4606     0.999857   0.00104834 -2.20273e-05 
         350      44.6653     0.999858   0.00104841 -2.18193e-05 
         350      44.8704     0.999859   0.00104845 -2.16057e-05 
         350       45.076      0.99986   0.00104846 -2.13887e-05 
         350       45.282     0.999861   0.00104844  -2.1171e-05 
         350      45.4886     0.999862   0.00104838 -2.09549e-05 
         350      45.6955     0.999863    0.0010483 -2.07432e-05 
         350       45.903     0.999864    0.0010482 -2.05377e-05 
         350      46.1111     0.999865    0.0010481 -2.03405e-05 
         350      46.3194     0.999866   0.00104799  -2.0153e-05 
         350      46.5283     0.999866   0.00104789 -1.99758e-05 
         350      46.7376     0.999867   0.00104781 -1.98092e-05 
         350      46.9475     0.999868   0.00104776 -1.96525e-05 
         350      47.1577     0.999869   0.00104775 -1.95048e-05 
         350      47.3685      0.99987   0.00104777 -1.93641e-05 
         350      47.5798     0.999871   0.00104782 -1.92282e-05 
         350      47.7914     0.999872   0.00104791 -1.90941e-05 
         350      48.0037     0.999873   0.00104804 -1.89583e-05 