Variables = x, y, u, v, p

Zone, I=416, F=POINT
         -50            0            0            0      112.637 
         -50     0.013333  0.000282497  9.32122e-08      112.637 
         -50     0.053333  0.000271937  3.48605e-07      112.637 
         -50         0.12   0.00026563  9.87876e-07      112.637 
         -50     0.213332  0.000256868  2.31434e-06      112.637 
         -50     0.333332  0.000244326  4.77021e-06      112.637 
         -50         0.48  0.000232463  7.29768e-06      112.637 
         -50     0.653331  0.000227186  1.03591e-05      112.636 
         -50     0.853332  0.000229274  1.45237e-05      112.636 
         -50         1.08  0.000232324  1.88793e-05      112.635 
         -50      1.33333  0.000233615  2.25192e-05      112.634 
         -50      1.61333  0.000237029  2.60531e-05      112.632 
         -50         1.92  0.000245321  2.93826e-05       112.63 
         -50      2.25333  0.000250085   3.1819e-05      112.628 
         -50      2.61333  0.000251026  3.29874e-05      112.624 
         -50            3  0.000252619  3.28424e-05      112.621 
         -25            0           -0           -0      108.145 
         -25     0.013333  0.000203938  3.37327e-08      108.145 
         -25     0.053333  0.000192645   9.2439e-08      108.145 
         -25         0.12  0.000189686  1.40477e-07      108.145 
         -25     0.213332  0.000193609  8.77696e-08      108.145 
         -25     0.333332  0.000199805 -1.02544e-07      108.145 
         -25         0.48  0.000204034 -3.33503e-07      108.145 
         -25     0.653331  0.000205203 -6.17056e-07      108.145 
         -25     0.853332   0.00020362 -9.18376e-07      108.144 
         -25         1.08  0.000199276 -9.72765e-07      108.144 
         -25      1.33333  0.000192915 -1.02937e-06      108.144 
         -25      1.61333  0.000187496 -6.65978e-07      108.143 
         -25         1.92  0.000184687  -3.5745e-07      108.142 
         -25      2.25333  0.000184147  1.10943e-06      108.141 
         -25      2.61333  0.000185855  2.69033e-06       108.14 
         -25            3  0.000187713  2.23764e-06      108.139 
           0            0            0            0      104.497 
           0     0.013333   0.00045322 -0.000267417        104.5 
           0     0.053333  0.000300516 -0.000145091      104.506 
           0         0.12  0.000242785 -9.89844e-05      104.512 
           0     0.213332  0.000220429  -7.5346e-05      104.518 
           0     0.333332  0.000212107 -5.99691e-05      104.525 
           0         0.48  0.000208042 -4.90075e-05      104.531 
           0     0.653331  0.000205614  -4.0911e-05      104.538 
           0     0.853332   0.00020216 -3.48078e-05      104.544 
           0         1.08  0.000196468 -3.01222e-05      104.549 
           0      1.33333  0.000188272 -2.64467e-05      104.555 
           0      1.61333  0.000177066 -2.34929e-05       104.56 
           0         1.92   0.00016536 -2.08962e-05      104.564 
           0      2.25333  0.000153979 -1.84756e-05      104.569 
           0      2.61333  0.000145199 -1.63792e-05      104.573 
           0            3  0.000136909 -1.79091e-05      104.576 
          20            0            0            0      102.307 
          20     0.013333  0.000345914  0.000196161      102.304 
          20     0.053333  0.000173272  6.78234e-05      102.299 
          20         0.12  0.000133832   4.4545e-05      102.293 
          20     0.213332   0.00013446  3.80897e-05      102.287 
          20     0.333332   0.00014495  3.39323e-05      102.281 
          20         0.48  0.000152717  2.95591e-05      102.274 
          20     0.653331  0.000154857  2.45701e-05      102.268 
          20     0.853332   0.00015577   1.9627e-05      102.263 
          20         1.08  0.000159263  1.54682e-05      102.257 
          20      1.33333  0.000163411  1.22689e-05      102.252 
          20      1.61333    0.0001662  9.97189e-06      102.246 
          20         1.92  0.000165296   8.4967e-06      102.241 
          20      2.25333  0.000160205  7.68698e-06      102.237 
          20      2.61333  0.000152709  7.22375e-06      102.232 
          20            3  0.000145987  6.27987e-06      102.227 
          40            0  3.01726e-19  7.27526e-24      99.8774 
          40     0.013333  0.000122585 -5.44834e-08      99.8774 
          40     0.053333  6.74837e-05 -9.78306e-07      99.8774 
          40         0.12  5.88887e-05 -4.82206e-06      99.8774 
          40     0.213332   0.00011765 -1.36513e-05      99.8774 
          40     0.333332  0.000200601 -2.77866e-05      99.8774 
          40         0.48   0.00025362 -4.59828e-05      99.8774 
          40     0.653331  0.000260797 -6.67681e-05      99.8774 
          40     0.853332  0.000245883  -8.8339e-05      99.8773 
          40         1.08  0.000231653 -0.000108735      99.8773 
          40      1.33333  0.000218038 -0.000125938      99.8772 
          40      1.61333  0.000202229 -0.000137811       99.877 
          40         1.92  0.000182501 -0.000143063      99.8769 
          40      2.25333  0.000163095 -0.000140962      99.8766 
          40      2.61333  0.000147968 -0.000133012      99.8764 
          40            3  0.000137485 -0.000121596       99.876 
          60            0  1.38396e-19  2.00351e-24       97.662 
          60     0.013333   0.00010003  -5.8137e-08       97.662 
          60     0.053333   2.0685e-06 -1.00355e-06       97.662 
          60         0.12 -5.87334e-05 -5.01102e-06       97.662 
          60     0.213332  -3.9825e-05 -1.45291e-05       97.662 
          60     0.333332  2.74543e-05 -3.04245e-05       97.662 
          60         0.48  8.29079e-05 -5.17593e-05       97.662 
          60     0.653331  9.09685e-05 -7.71083e-05       97.662 
          60     0.853332  6.00792e-05 -0.000104473       97.662 
          60         1.08  3.91709e-05 -0.000130477      97.6619 
          60      1.33333  5.55423e-05 -0.000151722      97.6619 
          60      1.61333   8.7766e-05 -0.000166703      97.6618 
          60         1.92  0.000120622 -0.000174042      97.6617 
          60      2.25333  0.000147604 -0.000173207      97.6616 
          60      2.61333  0.000164275 -0.000165173      97.6614 
          60            3  0.000170226 -0.000151791      97.6612 
          80            0            0            0      95.5179 
          80     0.013333  8.81818e-05 -1.64221e-08      95.5179 
          80     0.053333 -4.02689e-05 -4.03531e-07      95.5179 
          80         0.12 -0.000156343 -2.59096e-06      95.5179 
          80     0.213332 -0.000198954 -8.96007e-06      95.5179 
          80     0.333332 -0.000176122 -2.10957e-05      95.5179 
          80         0.48 -0.000140769 -3.85899e-05      95.5179 
          80     0.653331 -0.000126811 -5.96041e-05      95.5179 
          80     0.853332  -0.00011885 -8.12233e-05      95.5179 
          80         1.08 -8.01877e-05 -0.000100421      95.5178 
          80      1.33333 -1.55135e-05 -0.000115463      95.5178 
          80      1.61333  4.72452e-05 -0.000126206      95.5178 
          80         1.92  0.000106238 -0.000131638      95.5177 
          80      2.25333  0.000156408 -0.000131008      95.5176 
          80      2.61333   0.00019183 -0.000124826      95.5175 
          80            3  0.000212015 -0.000113553      95.5174 
         100            0            0            0      93.4178 
         100     0.013333  9.40818e-05 -2.90051e-08      93.4178 
         100     0.053333 -8.81952e-06 -5.88565e-07      93.4178 
         100         0.12 -8.43003e-05 -3.42927e-06      93.4178 
         100     0.213332 -8.49202e-05 -1.10465e-05      93.4178 
         100     0.333332  -3.8551e-05 -2.44788e-05      93.4178 
         100         0.48 -3.92401e-06 -4.23178e-05      93.4178 
         100     0.653331 -6.71336e-07 -6.19511e-05      93.4178 
         100     0.853332  8.48683e-07 -8.03603e-05      93.4177 
         100         1.08  2.94123e-05 -9.52989e-05      93.4177 
         100      1.33333  6.64737e-05 -0.000106277      93.4177 
         100      1.61333  9.59951e-05 -0.000113432      93.4177 
         100         1.92  0.000125568 -0.000115945      93.4177 
         100      2.25333  0.000151149 -0.000112952      93.4176 
         100      2.61333  0.000167856 -0.000105461      93.4176 
         100            3  0.000175303 -9.42193e-05      93.4175 
         150            0  1.64056e-19  2.58505e-25      88.2696 
         150     0.013333  0.000189066 -1.05893e-07      88.2696 
         150     0.053333  0.000344947 -1.43616e-06      88.2696 
         150         0.12  0.000579255  -5.4847e-06      88.2696 
         150     0.213332  0.000806208 -1.17591e-05      88.2696 
         150     0.333332  0.000952036 -1.78379e-05      88.2696 
         150         0.48   0.00101194 -2.17187e-05      88.2696 
         150     0.653331   0.00101654 -2.35248e-05      88.2696 
         150     0.853332  0.000965598 -2.57406e-05      88.2696 
         150         1.08  0.000838709 -3.07602e-05      88.2696 
         150      1.33333  0.000666437 -3.82622e-05      88.2696 
         150      1.61333  0.000492522 -4.55035e-05      88.2696 
         150         1.92  0.000315409 -5.13185e-05      88.2696 
         150      2.25333  0.000149811 -5.55087e-05      88.2696 
         150      2.61333  1.64956e-05 -5.72918e-05      88.2695 
         150            3 -7.04817e-05 -5.71301e-05      88.2695 
         200            0            0            0      83.1852 
         200     0.013333  8.69096e-05 -1.43211e-07      83.1852 
         200     0.053333  2.58125e-06 -2.20676e-06      83.1852 
         200         0.12  1.24469e-05 -1.02847e-05      83.1852 
         200     0.213332  0.000163595 -2.83214e-05      83.1852 
         200     0.333332  0.000383354 -5.71918e-05      83.1852 
         200         0.48  0.000564639 -9.46498e-05      83.1852 
         200     0.653331  0.000651072 -0.000137986      83.1852 
         200     0.853332  0.000637568 -0.000185477      83.1852 
         200         1.08  0.000558156 -0.000234683      83.1852 
         200      1.33333  0.000468221  -0.00028126      83.1852 
         200      1.61333  0.000385939 -0.000320816      83.1852 
         200         1.92  0.000296802 -0.000350078      83.1852 
         200      2.25333  0.000204542 -0.000366018      83.1852 
         200      2.61333  0.000122447 -0.000367396      83.1852 
         200            3  6.28324e-05 -0.000355248      83.1852 
         250            0            0            0       78.122 
         250     0.013333 -1.17046e-06 -2.97194e-08       78.122 
         250     0.053333 -0.000335618 -7.14166e-07       78.122 
         250         0.12  -0.00066981 -4.88868e-06       78.122 
         250     0.213332  -0.00083158  -1.7816e-05       78.122 
         250     0.333332 -0.000804434 -4.36841e-05       78.122 
         250         0.48  -0.00070605  -8.2313e-05       78.122 
         250     0.653331 -0.000642392 -0.000130007       78.122 
         250     0.853332 -0.000617433 -0.000181425       78.122 
         250         1.08 -0.000558818 -0.000230664       78.122 
         250      1.33333  -0.00043209 -0.000273271       78.122 
         250      1.61333 -0.000279483 -0.000307914       78.122 
         250         1.92 -0.000125014 -0.000333258       78.122 
         250      2.25333  2.71557e-05 -0.000346083       78.122 
         250      2.61333  0.000163717 -0.000345715       78.122 
         250            3  0.000266935 -0.000332844       78.122 
         300            0            0            0      73.0653 
         300     0.013333  3.05937e-05 -7.67544e-08      73.0653 
         300     0.053333 -0.000212046 -1.34072e-06      73.0653 
         300         0.12  -0.00041838 -7.19728e-06      73.0653 
         300     0.213332 -0.000465369 -2.23827e-05      73.0653 
         300     0.333332 -0.000375956 -4.95447e-05      73.0653 
         300         0.48 -0.000266924 -8.73741e-05      73.0653 
         300     0.653331 -0.000222704 -0.000132479      73.0653 
         300     0.853332 -0.000241334 -0.000181039      73.0653 
         300         1.08 -0.000251663 -0.000228242      73.0653 
         300      1.33333 -0.000197293 -0.000269247      73.0653 
         300      1.61333 -0.000109693 -0.000302265      73.0653 
         300         1.92 -2.59473e-05 -0.000326562      73.0653 
         300      2.25333    5.502e-05 -0.000339708      73.0653 
         300      2.61333  0.000130307 -0.000340524      73.0653 
         300            3  0.000190314 -0.000329191      73.0653 
         350            0           -0           -0      68.0088 
         350     0.013333 -3.36383e-05  8.07639e-08      68.0088 
         350     0.053333  -0.00048399  9.16414e-07      68.0088 
         350         0.12  -0.00102968  2.19573e-06      68.0088 
         350     0.213332  -0.00143689 -1.33975e-07      68.0088 
         350     0.333332  -0.00157952 -1.21925e-05      68.0088 
         350         0.48  -0.00152087  -3.7286e-05      68.0088 
         350     0.653331  -0.00140173  -7.3763e-05      68.0088 
         350     0.853332  -0.00128979  -0.00011661      68.0088 
         350         1.08  -0.00115046 -0.000159936      68.0088 
         350      1.33333 -0.000943865 -0.000199354      68.0088 
         350      1.61333 -0.000697236 -0.000233668      68.0088 
         350         1.92 -0.000440096 -0.000262201      68.0088 
         350      2.25333  -0.00017581 -0.000282618      68.0089 
         350      2.61333   7.7957e-05 -0.000293225      68.0089 
         350            3  0.000290611 -0.000293294      68.0089 
         400            0            0            0      62.9516 
         400     0.013333  0.000178346  2.35688e-07      62.9516 
         400     0.053333  0.000225433  3.52133e-06      62.9516 
         400         0.12  0.000141773  1.57345e-05      62.9516 
         400     0.213332 -9.94796e-05  4.13491e-05      62.9516 
         400     0.333332 -0.000376547  7.98345e-05      62.9516 
         400         0.48 -0.000559701  0.000127316      62.9516 
         400     0.653331 -0.000605334  0.000181164      62.9516 
         400     0.853332 -0.000520498  0.000241368      62.9516 
         400         1.08 -0.000344645  0.000306884      62.9516 
         400      1.33333 -0.000175518   0.00037213      62.9516 
         400      1.61333 -7.50917e-05  0.000430178      62.9516 
         400         1.92  2.28926e-06  0.000477367      62.9516 
         400      2.25333  7.96429e-05   0.00051078      62.9516 
         400      2.61333  0.000153509  0.000527524      62.9516 
         400            3  0.000213496  0.000526175      62.9516 
         450            0            0            0      57.8921 
         450     0.013333  0.000190663  1.47315e-07      57.8921 
         450     0.053333  0.000286048  2.29454e-06      57.8921 
         450         0.12  0.000289747  1.08412e-05      57.8921 
         450     0.213332  0.000136283  3.01813e-05      57.8921 
         450     0.333332 -9.60607e-05  6.12461e-05      57.8921 
         450         0.48 -0.000276977   0.00010119      57.8921 
         450     0.653331 -0.000339014  0.000146617      57.8921 
         450     0.853332 -0.000289157  0.000195591      57.8921 
         450         1.08 -0.000183019  0.000245779      57.8921 
         450      1.33333 -0.000102251  0.000292676      57.8921 
         450      1.61333 -6.91535e-05  0.000332542      57.8921 
         450         1.92 -3.50469e-05  0.000364388      57.8921 
         450      2.25333  9.55748e-06  0.000386455      57.8921 
         450      2.61333  5.77141e-05  0.000396771      57.8921 
         450            3  0.000102296  0.000394191      57.8921 
         500            0           -0           -0      52.8304 
         500     0.013333  0.000192035 -9.55812e-08      52.8304 
         500     0.053333  0.000361494 -1.31435e-06      52.8304 
         500         0.12  0.000622948 -5.15977e-06      52.8304 
         500     0.213332  0.000889518 -1.14449e-05      52.8304 
         500     0.333332   0.00107173 -1.79897e-05      52.8304 
         500         0.48   0.00114912 -2.26321e-05      52.8304 
         500     0.653331   0.00116093 -2.50204e-05      52.8304 
         500     0.853332   0.00113722 -2.67688e-05      52.8304 
         500         1.08   0.00106213 -3.06258e-05      52.8304 
         500      1.33333  0.000919709 -3.82476e-05      52.8304 
         500      1.61333  0.000749871 -4.81225e-05      52.8304 
         500         1.92  0.000589535 -5.76183e-05      52.8304 
         500      2.25333  0.000427081  -6.5724e-05      52.8304 
         500      2.61333  0.000261339 -7.20427e-05      52.8304 
         500            3  0.000107663 -7.62373e-05      52.8304 
         550            0           -0           -0      47.7656 
         550     0.013333  0.000113054  6.34699e-08      47.7656 
         550     0.053333  3.35848e-05  9.38121e-07      47.7656 
         550         0.12 -0.000105703    4.125e-06      47.7656 
         550     0.213332 -0.000279354  1.05896e-05      47.7656 
         550     0.333332 -0.000426877  1.96923e-05      47.7656 
         550         0.48 -0.000501427  2.95943e-05      47.7656 
         550     0.653331 -0.000502714  3.87259e-05      47.7656 
         550     0.853332 -0.000460441  4.65546e-05      47.7656 
         550         1.08  -0.00040223  5.31655e-05      47.7656 
         550      1.33333  -0.00033846  5.87775e-05      47.7656 
         550      1.61333 -0.000265049   6.3685e-05      47.7656 
         550         1.92 -0.000181911  6.77244e-05      47.7656 
         550      2.25333 -9.13278e-05  7.04619e-05      47.7656 
         550      2.61333  2.99777e-06  7.15072e-05      47.7656 
         550            3  9.38126e-05  7.06035e-05      47.7657 
         600            0  1.62568e-19 -1.19925e-26      42.6996 
         600     0.013333  0.000191528 -2.33025e-07      42.6996 
         600     0.053333   0.00040604  -3.4127e-06      42.6996 
         600         0.12   0.00084021 -1.48102e-05      42.6996 
         600     0.213332   0.00140697 -3.74884e-05      42.6996 
         600     0.333332   0.00189971 -6.89919e-05      42.6996 
         600         0.48   0.00216824 -0.000103512      42.6996 
         600     0.653331   0.00221483 -0.000137081      42.6996 
         600     0.853332   0.00211156 -0.000169869      42.6996 
         600         1.08   0.00190644 -0.000203912      42.6996 
         600      1.33333    0.0016435 -0.000238913      42.6996 
         600      1.61333   0.00137946 -0.000271663      42.6996 
         600         1.92   0.00112051 -0.000299213      42.6996 
         600      2.25333  0.000843058 -0.000320332      42.6996 
         600      2.61333  0.000548367 -0.000333376      42.6996 
         600            3  0.000260606  -0.00033686      42.6996 
         650            0           -0           -0      37.6292 
         650     0.013333  0.000102987  2.56656e-07      37.6292 
         650     0.053333 -5.63268e-05  3.75015e-06      37.6292 
         650         0.12 -0.000416459  1.62493e-05      37.6292 
         650     0.213332 -0.000923131  4.12431e-05      37.6292 
         650     0.333332  -0.00139312  7.67211e-05      37.6292 
         650         0.48  -0.00168382  0.000117599      37.6292 
         650     0.653331  -0.00178411  0.000160817      37.6292 
         650     0.853332  -0.00173585  0.000207443      37.6292 
         650         1.08  -0.00155074   0.00026037      37.6292 
         650      1.33333  -0.00126216  0.000319251      37.6292 
         650      1.61333 -0.000969492  0.000378496      37.6292 
         650         1.92 -0.000723024  0.000432026      37.6292 
         650      2.25333 -0.000479818  0.000476694      37.6292 
         650      2.61333  -0.00022363  0.000509933      37.6292 
         650            3  2.66367e-05  0.000529229      37.6292 
         700            0            0            0      32.5575 
         700     0.013333  0.000265084 -7.11091e-08      32.5575 
         700     0.053333  0.000611218 -8.37344e-07      32.5575 
         700         0.12   0.00104409 -2.22761e-06      32.5575 
         700     0.213332   0.00135942 -9.63823e-07      32.5575 
         700     0.333332   0.00142901  8.37351e-06      32.5575 
         700         0.48   0.00130333  2.88832e-05      32.5575 
         700     0.653331   0.00113093  5.87019e-05      32.5575 
         700     0.853332  0.000997273  9.24531e-05      32.5575 
         700         1.08  0.000869655  0.000124026      32.5575 
         700      1.33333  0.000694403  0.000149854      32.5575 
         700      1.61333  0.000508269  0.000171159      32.5575 
         700         1.92  0.000368897  0.000190765      32.5575 
         700      2.25333  0.000249974  0.000208262      32.5575 
         700      2.61333  0.000133011  0.000221934      32.5575 
         700            3  2.42443e-05  0.000230273      32.5575 
         750            0            0            0      27.4803 
         750     0.013333  -0.00012228  7.06077e-08      27.4803 
         750     0.053333  -0.00081121  7.21369e-07      27.4803 
         750         0.12  -0.00166355  9.97059e-07      27.4803 
         750     0.213332  -0.00233742 -4.51167e-06      27.4803 
         750     0.333332  -0.00262652 -2.36608e-05      27.4803 
         750         0.48  -0.00259459 -6.09039e-05      27.4803 
         750     0.653331  -0.00245657 -0.000114445      27.4803 
         750     0.853332  -0.00235905 -0.000178137      27.4803 
         750         1.08  -0.00227157 -0.000243504      27.4803 
         750      1.33333  -0.00206572 -0.000302266      27.4803 
         750      1.61333  -0.00171933 -0.000351163      27.4803 
         750         1.92  -0.00135009 -0.000392808      27.4803 
         750      2.25333 -0.000980849   -0.0004279      27.4804 
         750      2.61333 -0.000599407 -0.000454157      27.4804 
         750            3 -0.000211161 -0.000468869      27.4804 
         800            0           -0           -0      22.4011 
         800     0.013333  0.000264674  2.78034e-08      22.4011 
         800     0.053333  0.000581088  6.35274e-07      22.4011 
         800         0.12  0.000912238  4.28997e-06      22.4011 
         800     0.213332   0.00106957   1.5802e-05      22.4011 
         800     0.333332    0.0010062  3.94916e-05      22.4011 
         800         0.48  0.000842652  7.56424e-05      22.4011 
         800     0.653331  0.000733733  0.000120687      22.4011 
         800     0.853332  0.000738936  0.000169865      22.4011 
         800         1.08    0.0007941  0.000217932      22.4011 
         800      1.33333  0.000769916  0.000258864      22.4011 
         800      1.61333   0.00062552  0.000289422      22.4011 
         800         1.92  0.000471867  0.000312788      22.4011 
         800      2.25333   0.00034772  0.000330194      22.4011 
         800      2.61333  0.000238508  0.000341375      22.4011 
         800            3  0.000130397  0.000344812      22.4011 
         850            0           -0           -0      17.3156 
         850     0.013333 -0.000103926 -8.15889e-08      17.3156 
         850     0.053333 -0.000698953 -1.51334e-06      17.3156 
         850         0.12   -0.0013217 -8.78045e-06      17.3156 
         850     0.213332  -0.00164933  -2.9713e-05      17.3156 
         850     0.333332  -0.00158264  -7.1463e-05      17.3156 
         850         0.48  -0.00128957 -0.000135585      17.3156 
         850     0.653331  -0.00101797 -0.000217917      17.3156 
         850     0.853332 -0.000903479 -0.000312274      17.3156 
         850         1.08 -0.000915517 -0.000412056      17.3156 
         850      1.33333 -0.000907338 -0.000509427      17.3156 
         850      1.61333 -0.000773589 -0.000597693      17.3156 
         850         1.92  -0.00058009 -0.000675549      17.3156 
         850      2.25333 -0.000392132 -0.000742915      17.3156 
         850      2.61333 -0.000213546 -0.000796501      17.3156 
         850            3 -3.10677e-05 -0.000831834      17.3156 
         900            0  2.11696e-19 -4.89965e-26      12.2276 
         900     0.013333  0.000324011 -1.20827e-07      12.2276 
         900     0.053333   0.00084731 -1.57233e-06      12.2276 
         900         0.12   0.00156455 -5.49168e-06      12.2276 
         900     0.213332   0.00222055 -9.51255e-06      12.2276 
         900     0.333332   0.00260161 -7.88727e-06      12.2276 
         900         0.48   0.00268681   4.1859e-06      12.2276 
         900     0.653331   0.00261605  2.69892e-05      12.2276 
         900     0.853332   0.00252315  5.66452e-05      12.2276 
         900         1.08   0.00242034  8.70483e-05      12.2276 
         900      1.33333   0.00222571   0.00011214      12.2276 
         900      1.61333   0.00190874  0.000129114      12.2276 
         900         1.92   0.00156435    0.0001408      12.2275 
         900      2.25333   0.00123256  0.000150135      12.2275 
         900      2.61333  0.000899285  0.000157073      12.2275 
         900            3  0.000551852  0.000160376      12.2275 
         950            0           -0           -0      7.13348 
         950     0.013333  5.92437e-05  2.36604e-07      7.13348 
         950     0.053333 -0.000218465  3.46931e-06      7.13348 
         950         0.12 -0.000736358   1.5072e-05      7.13348 
         950     0.213332  -0.00139704   3.8221e-05      7.13348 
         950     0.333332  -0.00196985  7.04285e-05      7.13348 
         950         0.48  -0.00227715  0.000105513      7.13348 
         950     0.653331  -0.00231686  0.000139021      7.13347 
         950     0.853332  -0.00218539  0.000171226      7.13347 
         950         1.08  -0.00194693  0.000205419      7.13347 
         950      1.33333  -0.00163162  0.000243439      7.13347 
         950      1.61333  -0.00130515  0.000282805      7.13348 
         950         1.92  -0.00103588  0.000318719      7.13348 
         950      2.25333 -0.000789171   0.00034875      7.13349 
         950      2.61333 -0.000529879  0.000371814      7.13351 
         950            3 -0.000256107  0.000386817      7.13353 
        1000            0           -0           -0      2.03864 
        1000     0.013333 -0.000138186 -2.28187e-07      2.03864 
        1000     0.053333 -0.000779337 -3.69426e-06      2.03864 
        1000         0.12  -0.00134486 -1.85048e-05      2.03864 
        1000     0.213332  -0.00145446 -5.54496e-05      2.03864 
        1000     0.333332  -0.00106914 -0.000121821      2.03864 
        1000         0.48 -0.000485021 -0.000216615      2.03864 
        1000     0.653331  -4.5071e-05 -0.000332917      2.03864 
        1000     0.853332  9.58467e-05 -0.000463129      2.03864 
        1000         1.08 -1.28684e-05 -0.000601154      2.03864 
        1000      1.33333 -0.000195715 -0.000740037      2.03864 
        1000      1.61333 -0.000279059 -0.000871354      2.03864 
        1000         1.92 -0.000244923  -0.00098974      2.03864 
        1000      2.25333 -0.000191221  -0.00109317      2.03864 
        1000      2.61333 -0.000154087  -0.00117771      2.03864 
        1000            3 -0.000118837  -0.00123767      2.03865 
