Variables = x, y, u, v, p

Zone, I=416, F=POINT
         -50            0            0            0      69.1473 
         -50     0.013333  0.000487562   1.0194e-07      69.1473 
         -50     0.053333  0.000451313   4.5117e-07      69.1473 
         -50         0.12  0.000429197  1.08876e-06      69.1473 
         -50     0.213332  0.000416096  2.01457e-06      69.1473 
         -50     0.333332  0.000408898  3.15314e-06      69.1472 
         -50         0.48  0.000404544   3.7362e-06      69.1471 
         -50     0.653331   0.00040334  4.26488e-06      69.1469 
         -50     0.853332  0.000407444  5.68018e-06      69.1465 
         -50         1.08  0.000417527  7.06953e-06      69.1461 
         -50      1.33333  0.000431492  8.93465e-06      69.1454 
         -50      1.61333   0.00044659  1.07679e-05      69.1445 
         -50         1.92  0.000457755   1.2519e-05      69.1433 
         -50      2.25333  0.000465065  1.49275e-05      69.1417 
         -50      2.61333  0.000465386  1.60997e-05      69.1398 
         -50            3  0.000459305   1.4525e-05      69.1374 
         -25            0           -0           -0      66.3923 
         -25     0.013333  0.000358974  4.82665e-08      66.3923 
         -25     0.053333  0.000337125  2.99334e-07      66.3923 
         -25         0.12  0.000322856  9.67108e-07      66.3923 
         -25     0.213332  0.000311084  2.15712e-06      66.3922 
         -25     0.333332  0.000302854  3.77415e-06      66.3922 
         -25         0.48  0.000299468  5.68238e-06      66.3922 
         -25     0.653331  0.000301836  7.72941e-06      66.3921 
         -25     0.853332  0.000308442  9.88938e-06       66.392 
         -25         1.08  0.000316022  1.20522e-05      66.3918 
         -25      1.33333  0.000321799  1.39289e-05      66.3915 
         -25      1.61333  0.000325392  1.55465e-05      66.3912 
         -25         1.92  0.000332605   1.6532e-05      66.3907 
         -25      2.25333  0.000341158  1.80026e-05      66.3901 
         -25      2.61333  0.000342798  1.67876e-05      66.3894 
         -25            3  0.000335868  1.02482e-05      66.3884 
           0            0            0            0      64.1492 
           0     0.013333  0.000889062 -0.000504338      64.1517 
           0     0.053333  0.000539203 -0.000267564      64.1552 
           0         0.12  0.000422095 -0.000173157      64.1591 
           0     0.213332  0.000376832 -0.000131722      64.1631 
           0     0.333332  0.000356267 -0.000106238      64.1672 
           0         0.48  0.000340127  -8.7943e-05      64.1712 
           0     0.653331  0.000326558 -7.46348e-05      64.1751 
           0     0.853332  0.000314987 -6.46073e-05      64.1788 
           0         1.08  0.000306318 -5.67139e-05      64.1824 
           0      1.33333  0.000299994 -5.01554e-05      64.1857 
           0      1.61333   0.00029411  -4.4323e-05      64.1888 
           0         1.92  0.000287328 -3.89243e-05      64.1918 
           0      2.25333  0.000282296 -3.35011e-05      64.1944 
           0      2.61333  0.000282324 -2.80794e-05      64.1969 
           0            3  0.000280096 -2.55543e-05      64.1991 
          20            0            0            0      62.8045 
          20     0.013333   0.00057126  0.000258209      62.8022 
          20     0.053333  0.000173325 -2.88078e-05      62.7989 
          20         0.12  0.000147474 -7.50704e-05      62.7953 
          20     0.213332  0.000228344 -7.86116e-05      62.7915 
          20     0.333332  0.000344403 -8.15212e-05      62.7877 
          20         0.48  0.000454955 -8.76581e-05      62.7839 
          20     0.653331  0.000514592 -9.78433e-05      62.7802 
          20     0.853332  0.000505895 -0.000111511      62.7766 
          20         1.08  0.000460872  -0.00012496      62.7732 
          20      1.33333  0.000406886  -0.00013477      62.7698 
          20      1.61333  0.000350857 -0.000138999      62.7666 
          20         1.92   0.00029948 -0.000136631      62.7635 
          20      2.25333  0.000259742 -0.000128153      62.7605 
          20      2.61333  0.000231516 -0.000115221      62.7575 
          20            3  0.000220802 -9.71525e-05      62.7547 
          40            0   5.7186e-19  6.10153e-24      61.3085 
          40     0.013333  0.000267817 -1.08289e-07      61.3085 
          40     0.053333  0.000291742 -1.61254e-06      61.3085 
          40         0.12  0.000376381 -6.62669e-06      61.3085 
          40     0.213332  0.000482143 -1.55673e-05      61.3085 
          40     0.333332  0.000555936 -2.68676e-05      61.3085 
          40         0.48  0.000581722 -3.94886e-05      61.3085 
          40     0.653331  0.000563768 -5.43536e-05      61.3085 
          40     0.853332  0.000511744 -7.22212e-05      61.3084 
          40         1.08  0.000445853 -9.08696e-05      61.3084 
          40      1.33333  0.000373799 -0.000107241      61.3083 
          40      1.61333  0.000302952 -0.000118662      61.3083 
          40         1.92  0.000240005 -0.000123948      61.3081 
          40      2.25333  0.000192672 -0.000122455       61.308 
          40      2.61333     0.000166 -0.000115233      61.3078 
          40            3  0.000157007 -0.000105566      61.3076 
          60            0  2.76185e-19  1.67229e-24      59.9444 
          60     0.013333  0.000260088 -2.29258e-08      59.9444 
          60     0.053333  0.000272499 -3.41325e-07      59.9444 
          60         0.12  0.000304449 -1.26187e-06      59.9444 
          60     0.213332  0.000334244 -2.57492e-06      59.9444 
          60     0.333332  0.000349193 -3.78066e-06      59.9444 
          60         0.48  0.000353267 -4.64989e-06      59.9444 
          60     0.653331  0.000353209 -5.51039e-06      59.9444 
          60     0.853332  0.000339758 -7.55771e-06      59.9443 
          60         1.08  0.000303096 -1.17083e-05      59.9443 
          60      1.33333  0.000265118 -1.68954e-05      59.9443 
          60      1.61333   0.00023991 -2.12558e-05      59.9442 
          60         1.92   0.00021736 -2.43902e-05      59.9442 
          60      2.25333  0.000197859 -2.61165e-05      59.9441 
          60      2.61333  0.000186261 -2.61584e-05       59.944 
          60            3  0.000184502 -2.52376e-05      59.9439 
          80            0            0            0      58.6238 
          80     0.013333  0.000245176 -2.96917e-08      58.6238 
          80     0.053333  0.000240509 -4.81761e-07      58.6238 
          80         0.12  0.000266226 -2.19245e-06      58.6238 
          80     0.213332  0.000311433 -5.72084e-06      58.6238 
          80     0.333332  0.000349718 -1.07146e-05      58.6238 
          80         0.48  0.000363881 -1.62591e-05      58.6238 
          80     0.653331  0.000356847 -2.16274e-05      58.6238 
          80     0.853332  0.000340352 -2.63699e-05      58.6237 
          80         1.08  0.000320894 -3.02768e-05      58.6237 
          80      1.33333  0.000296498 -3.34486e-05      58.6237 
          80      1.61333  0.000270737 -3.55355e-05      58.6237 
          80         1.92  0.000245403 -3.60851e-05      58.6236 
          80      2.25333   0.00022348 -3.51325e-05      58.6236 
          80      2.61333  0.000205206 -3.29658e-05      58.6235 
          80            3   0.00019061 -3.00052e-05      58.6235 
         100            0            0            0      57.3299 
         100     0.013333  0.000220851 -6.91854e-08      57.3299 
         100     0.053333  0.000176522 -1.09871e-06      57.3299 
         100         0.12  0.000186319 -5.17585e-06      57.3299 
         100     0.213332  0.000261706 -1.42252e-05      57.3299 
         100     0.333332  0.000357415 -2.83601e-05      57.3299 
         100         0.48  0.000421705 -4.60646e-05      57.3299 
         100     0.653331  0.000436797 -6.57642e-05      57.3299 
         100     0.853332  0.000413911 -8.61703e-05      57.3299 
         100         1.08    0.0003806 -0.000105398      57.3299 
         100      1.33333  0.000349629  -0.00012162      57.3299 
         100      1.61333  0.000314286 -0.000133701      57.3299 
         100         1.92  0.000275153 -0.000140352      57.3298 
         100      2.25333  0.000238325 -0.000140814      57.3298 
         100      2.61333  0.000209726 -0.000135446      57.3298 
         100            3   0.00019164 -0.000125924      57.3297 
         150            0  2.57104e-19  2.20659e-25      54.1576 
         150     0.013333  0.000242381 -2.15281e-07      54.1576 
         150     0.053333  0.000296234 -3.14207e-06      54.1576 
         150         0.12  0.000481843 -1.34776e-05      54.1576 
         150     0.213332  0.000747112 -3.35757e-05      54.1576 
         150     0.333332  0.000964488 -6.11145e-05      54.1576 
         150         0.48   0.00106108 -9.22088e-05      54.1576 
         150     0.653331   0.00104189 -0.000125384      54.1576 
         150     0.853332  0.000930213 -0.000161107      54.1576 
         150         1.08  0.000771183 -0.000197526      54.1576 
         150      1.33333  0.000621267 -0.000230418      54.1576 
         150      1.61333    0.0004845 -0.000256143      54.1576 
         150         1.92  0.000343387 -0.000272399      54.1575 
         150      2.25333  0.000210455 -0.000277761      54.1575 
         150      2.61333  0.000105347 -0.000271526      54.1575 
         150            3  4.22612e-05 -0.000255325      54.1575 
         200            0            0            0      51.0246 
         200     0.013333  0.000355081 -8.55736e-08      51.0246 
         200     0.053333  0.000664528 -1.01326e-06      51.0246 
         200         0.12    0.0010568 -2.84172e-06      51.0246 
         200     0.213332   0.00135589 -2.49286e-06      51.0246 
         200     0.333332    0.0014731  4.66965e-06      51.0246 
         200         0.48   0.00145905  2.09138e-05      51.0246 
         200     0.653331   0.00140594  4.47057e-05      51.0246 
         200     0.853332   0.00133364  7.14549e-05      51.0246 
         200         1.08   0.00119441  9.59717e-05      51.0246 
         200      1.33333   0.00098538  0.000115451      51.0246 
         200      1.61333  0.000758981  0.000130716      51.0246 
         200         1.92  0.000527265  0.000141648      51.0245 
         200      2.25333  0.000301459  0.000146437      51.0245 
         200      2.61333  0.000107255  0.000145492      51.0245 
         200            3 -2.85882e-05   0.00013926      51.0245 
         250            0            0            0       47.905 
         250     0.013333   0.00023135 -1.50867e-07       47.905 
         250     0.053333  0.000252452 -2.23184e-06       47.905 
         250         0.12  0.000385331 -9.84309e-06       47.905 
         250     0.213332  0.000616093 -2.55293e-05       47.905 
         250     0.333332  0.000852726 -4.86865e-05       47.905 
         250         0.48   0.00101408 -7.66633e-05       47.905 
         250     0.653331   0.00107819 -0.000107499       47.905 
         250     0.853332   0.00104983 -0.000140973       47.905 
         250         1.08  0.000944087 -0.000176717       47.905 
         250      1.33333  0.000802823 -0.000212335       47.905 
         250      1.61333  0.000660773 -0.000244039       47.905 
         250         1.92  0.000512432 -0.000268896       47.905 
         250      2.25333  0.000360892  -0.00028463       47.905 
         250      2.61333    0.0002223 -0.000289706       47.905 
         250            3  0.000115168 -0.000284318      47.9049 
         300            0            0            0      44.7901 
         300     0.013333  0.000221772  3.55529e-08      44.7901 
         300     0.053333  0.000165997  5.20896e-07      44.7901 
         300         0.12  8.04571e-05  2.28233e-06      44.7901 
         300     0.213332  -2.8064e-05  5.91265e-06      44.7901 
         300     0.333332 -0.000133184  1.12665e-05      44.7901 
         300         0.48 -0.000210752  1.75577e-05      44.7901 
         300     0.653331 -0.000253702  2.39735e-05      44.7901 
         300     0.853332 -0.000264871   3.0303e-05      44.7901 
         300         1.08 -0.000241462  3.69613e-05      44.7901 
         300      1.33333 -0.000182158  4.44294e-05      44.7901 
         300      1.61333 -0.000102182  5.21864e-05      44.7901 
         300         1.92  -1.4962e-05  5.91756e-05      44.7901 
         300      2.25333  7.67515e-05  6.46491e-05      44.7901 
         300      2.61333  0.000165507  6.80717e-05      44.7901 
         300            3  0.000240169  6.92927e-05      44.7901 
         350            0           -0           -0      41.6778 
         350     0.013333  0.000229453 -1.87905e-07      41.6778 
         350     0.053333  0.000262779 -2.83687e-06      41.6778 
         350         0.12  0.000454896 -1.28632e-05      41.6778 
         350     0.213332   0.00079727 -3.42819e-05      41.6778 
         350     0.333332   0.00115206 -6.66556e-05      41.6778 
         350         0.48   0.00138122 -0.000105653      41.6778 
         350     0.653331   0.00145128 -0.000147014      41.6778 
         350     0.853332   0.00140094 -0.000188847      41.6778 
         350         1.08   0.00127759 -0.000230286      41.6778 
         350      1.33333   0.00111932 -0.000269668      41.6778 
         350      1.61333  0.000946064 -0.000304459      41.6778 
         350         1.92  0.000756188 -0.000332078      41.6778 
         350      2.25333  0.000551911 -0.000350015      41.6778 
         350      2.61333  0.000349607 -0.000356399      41.6778 
         350            3  0.000173898 -0.000350741      41.6778 
         400            0            0            0      38.5648 
         400     0.013333 -6.70472e-07  1.64991e-07      38.5648 
         400     0.053333 -0.000653883  2.05702e-06      38.5648 
         400         0.12  -0.00148384  6.54046e-06      38.5648 
         400     0.213332  -0.00216421  9.00581e-06      38.5648 
         400     0.333332  -0.00248293  9.44515e-07      38.5648 
         400         0.48  -0.00249284  -2.3031e-05      38.5648 
         400     0.653331  -0.00238033 -6.12848e-05      38.5648 
         400     0.853332  -0.00224129 -0.000106792      38.5648 
         400         1.08  -0.00202206 -0.000150791      38.5648 
         400      1.33333  -0.00167341 -0.000187735      38.5648 
         400      1.61333  -0.00126259 -0.000218115      38.5648 
         400         1.92 -0.000841747 -0.000243292      38.5648 
         400      2.25333 -0.000405221 -0.000261279      38.5649 
         400      2.61333  2.61572e-05 -0.000270517      38.5649 
         400            3  0.000404699 -0.000270267      38.5649 
         450            0            0            0       35.454 
         450     0.013333   0.00034607  2.16865e-07       35.454 
         450     0.053333  0.000559104  3.36962e-06       35.454 
         450         0.12   0.00066577  1.59153e-05       35.454 
         450     0.213332  0.000536903  4.45015e-05       35.454 
         450     0.333332  0.000257109  9.12168e-05       35.454 
         450         0.48  5.68992e-06  0.000152898       35.454 
         450     0.653331 -0.000106777  0.000225138       35.454 
         450     0.853332 -6.84196e-05  0.000305187       35.454 
         450         1.08  6.33265e-05  0.000389966       35.454 
         450      1.33333  0.000177437  0.000473015       35.454 
         450      1.61333   0.00021169  0.000547054       35.454 
         450         1.92  0.000218792  0.000608228       35.454 
         450      2.25333  0.000227492  0.000652831       35.454 
         450      2.61333  0.000237437  0.000677285       35.454 
         450            3  0.000243051  0.000679354       35.454 
         500            0           -0           -0      32.3432 
         500     0.013333   0.00026508 -2.44769e-07      32.3432 
         500     0.053333  0.000405466 -3.61021e-06      32.3432 
         500         0.12  0.000758504 -1.58522e-05      32.3432 
         500     0.213332   0.00126534 -4.08005e-05      32.3432 
         500     0.333332   0.00173383 -7.67314e-05      32.3432 
         500         0.48   0.00200785 -0.000118105      32.3432 
         500     0.653331   0.00207291 -0.000160553      32.3432 
         500     0.853332   0.00198942  -0.00020334      32.3432 
         500         1.08   0.00180457 -0.000247551      32.3432 
         500      1.33333   0.00155915 -0.000292551      32.3432 
         500      1.61333   0.00130339 -0.000334946      32.3432 
         500         1.92   0.00104936  -0.00037101      32.3432 
         500      2.25333  0.000779872 -0.000398144      32.3432 
         500      2.61333  0.000500657 -0.000414128      32.3432 
         500            3  0.000238958   -0.0004174      32.3431 
         550            0           -0           -0      29.2308 
         550     0.013333  0.000136512  3.54684e-07      29.2308 
         550     0.053333 -0.000230999  5.13994e-06      29.2308 
         550         0.12 -0.000904214  2.19641e-05      29.2308 
         550     0.213332  -0.00174072   5.4638e-05      29.2308 
         550     0.333332  -0.00244669  9.89465e-05      29.2308 
         550         0.48  -0.00283329  0.000146694      29.2308 
         550     0.653331  -0.00292236  0.000193159      29.2308 
         550     0.853332  -0.00280611  0.000239822      29.2308 
         550         1.08  -0.00251974  0.000290847      29.2308 
         550      1.33333  -0.00210713    0.0003464      29.2308 
         550      1.61333  -0.00167096  0.000400781      29.2308 
         550         1.92  -0.00124709  0.000448088      29.2308 
         550      2.25333 -0.000801006  0.000485323      29.2308 
         550      2.61333  -0.00033545   0.00050978      29.2309 
         550            3  0.000108293  0.000519253      29.2309 
         600            0   2.6928e-19  3.00041e-27      26.1212 
         600     0.013333  0.000281413 -1.90633e-07      26.1212 
         600     0.053333  0.000443336 -2.72444e-06      26.1212 
         600         0.12   0.00076709 -1.14271e-05      26.1212 
         600     0.213332   0.00117339 -2.79366e-05      26.1212 
         600     0.333332   0.00152224 -5.01132e-05      26.1212 
         600         0.48   0.00173531 -7.45449e-05      26.1212 
         600     0.653331   0.00182826 -9.98915e-05      26.1212 
         600     0.853332   0.00182919 -0.000127834      26.1212 
         600         1.08   0.00171883 -0.000161729      26.1212 
         600      1.33333   0.00148893 -0.000202842      26.1212 
         600      1.61333   0.00121749 -0.000247324      26.1212 
         600         1.92  0.000978363 -0.000289216      26.1212 
         600      2.25333   0.00074543 -0.000325198      26.1212 
         600      2.61333  0.000505096 -0.000353112      26.1211 
         600            3  0.000274273 -0.000371078      26.1211 
         650            0           -0           -0      23.0103 
         650     0.013333  0.000198079 -1.53261e-07      23.0103 
         650     0.053333   0.00014918 -2.40676e-06      23.0103 
         650         0.12  0.000252616 -1.15429e-05      23.0103 
         650     0.213332  0.000566605 -3.27668e-05      23.0103 
         650     0.333332  0.000981016 -6.77096e-05      23.0103 
         650         0.48    0.0013093 -0.000112937      23.0103 
         650     0.653331   0.00144852 -0.000162962      23.0103 
         650     0.853332   0.00142011 -0.000213711      23.0103 
         650         1.08   0.00130904 -0.000262568      23.0103 
         650      1.33333   0.00119619 -0.000306975      23.0103 
         650      1.61333   0.00109816 -0.000345406      23.0103 
         650         1.92  0.000975911 -0.000377843      23.0103 
         650      2.25333  0.000822981 -0.000402971      23.0103 
         650      2.61333  0.000649764 -0.000418903      23.0103 
         650            3  0.000470581 -0.000423821      23.0103 
         700            0            0            0      19.8996 
         700     0.013333  0.000491087  3.18308e-07      19.8996 
         700     0.053333   0.00104305   5.0724e-06      19.8996 
         700         0.12   0.00144767  2.48757e-05      19.8996 
         700     0.213332   0.00135818  7.27101e-05      19.8996 
         700     0.333332   0.00082868  0.000155827      19.8996 
         700         0.48  0.000205632  0.000271408      19.8996 
         700     0.653331 -0.000203018  0.000410955      19.8996 
         700     0.853332 -0.000298114  0.000566923      19.8996 
         700         1.08 -0.000156605  0.000733026      19.8996 
         700      1.33333  3.14381e-05  0.000900047      19.8996 
         700      1.61333  0.000110381   0.00105704      19.8996 
         700         1.92  0.000112686   0.00119734      19.8996 
         700      2.25333   0.00011386    0.0013153      19.8996 
         700      2.61333   0.00013048   0.00140392      19.8996 
         700            3  0.000148891   0.00145595      19.8996 
         750            0            0            0      16.7889 
         750     0.013333 -9.20147e-06 -1.18736e-07      16.7889 
         750     0.053333 -0.000617494 -2.04532e-06      16.7889 
         750         0.12  -0.00124547 -1.09587e-05      16.7889 
         750     0.213332    -0.001596 -3.46236e-05      16.7889 
         750     0.333332  -0.00160467 -7.89201e-05      16.7889 
         750         0.48  -0.00143655  -0.00014415      16.7889 
         750     0.653331  -0.00129724 -0.000226512      16.7889 
         750     0.853332  -0.00129019 -0.000321613      16.7889 
         750         1.08  -0.00138219 -0.000424278      16.7889 
         750      1.33333  -0.00142016 -0.000526004      16.7889 
         750      1.61333   -0.0012771 -0.000617541      16.7889 
         750         1.92  -0.00101985 -0.000695676      16.7889 
         750      2.25333 -0.000739632 -0.000759711      16.7889 
         750      2.61333 -0.000455358 -0.000806625      16.7889 
         750            3 -0.000160223 -0.000832444      16.7889 
         800            0           -0           -0      13.6792 
         800     0.013333  0.000250132   2.2227e-07      13.6792 
         800     0.053333  0.000203716  3.40043e-06      13.6792 
         800         0.12 -3.66144e-05  1.57214e-05      13.6792 
         800     0.213332 -0.000501088  4.28269e-05      13.6792 
         800     0.333332  -0.00101527  8.49309e-05      13.6792 
         800         0.48  -0.00135288  0.000136471      13.6792 
         800     0.653331  -0.00142288  0.000191206      13.6792 
         800     0.853332  -0.00127632  0.000246411      13.6792 
         800         1.08  -0.00101419  0.000301386      13.6792 
         800      1.33333 -0.000758333  0.000353031      13.6792 
         800      1.61333 -0.000596729  0.000396506      13.6792 
         800         1.92 -0.000482651  0.000430467      13.6792 
         800      2.25333 -0.000347905  0.000455607      13.6792 
         800      2.61333  -0.00018288  0.000470964      13.6792 
         800            3 -9.80102e-06  0.000474693      13.6792 
         850            0           -0           -0      10.5701 
         850     0.013333 -8.70415e-05 -3.87221e-07      10.5701 
         850     0.053333 -0.000803627 -6.18994e-06      10.5701 
         850         0.12  -0.00130931   -3.052e-05      10.5701 
         850     0.213332  -0.00116125 -8.98263e-05      10.5701 
         850     0.333332 -0.000420827 -0.000193848      10.5701 
         850         0.48  0.000453981 -0.000339381      10.5701 
         850     0.653331   0.00103759 -0.000515039      10.5701 
         850     0.853332   0.00118633  -0.00071022      10.5701 
         850         1.08   0.00100088 -0.000916909      10.5701 
         850      1.33333  0.000728223  -0.00112472      10.5701 
         850      1.61333  0.000588451  -0.00132106      10.5701 
         850         1.92  0.000567131  -0.00149841      10.5701 
         850      2.25333   0.00054686   -0.0016519      10.5701 
         850      2.61333  0.000494687  -0.00177425      10.5701 
         850            3  0.000432849  -0.00185643      10.5701 
         900            0  4.28315e-19  5.35296e-26      7.46241 
         900     0.013333   0.00072284 -1.00494e-07      7.46241 
         900     0.053333    0.0020131 -9.53687e-07      7.46241 
         900         0.12    0.0036402 -5.62559e-07      7.46241 
         900     0.213332   0.00495838  1.05833e-05      7.46241 
         900     0.333332   0.00555809   4.6333e-05      7.46241 
         900         0.48   0.00552049  0.000115172      7.46241 
         900     0.653331   0.00523563  0.000215046      7.46241 
         900     0.853332   0.00501619  0.000336423      7.46242 
         900         1.08    0.0048792   0.00046596      7.46242 
         900      1.33333   0.00460437  0.000588796      7.46242 
         900      1.61333   0.00404786  0.000694673      7.46241 
         900         1.92    0.0033631  0.000784672       7.4624 
         900      2.25333   0.00267068  0.000861905      7.46238 
         900      2.61333   0.00196981  0.000923575      7.46235 
         900            3   0.00123788  0.000964419       7.4623 
         950            0           -0           -0      4.35121 
         950     0.013333  0.000161253  2.90577e-07      4.35121 
         950     0.053333 -0.000129728  4.21018e-06      4.35121 
         950         0.12 -0.000687168  1.80449e-05      4.35121 
         950     0.213332  -0.00141644  4.52642e-05      4.35121 
         950     0.333332  -0.00207616  8.31785e-05      4.35121 
         950         0.48  -0.00248635  0.000125751      4.35121 
         950     0.653331  -0.00264762  0.000169094      4.35121 
         950     0.853332  -0.00264761  0.000214215      4.35121 
         950         1.08  -0.00250728   0.00026612      4.35121 
         950      1.33333  -0.00218007  0.000329644      4.35121 
         950      1.61333  -0.00171817  0.000403067      4.35121 
         950         1.92  -0.00130659  0.000476613      4.35121 
         950      2.25333 -0.000954642  0.000542982      4.35123 
         950      2.61333 -0.000608104  0.000598685      4.35124 
         950            3 -0.000242523  0.000641549      4.35127 
        1000            0           -0           -0      1.24289 
        1000     0.013333  0.000175776  2.69344e-08      1.24289 
        1000     0.053333 -7.72827e-06  3.66551e-07      1.24289 
        1000         0.12 -0.000277304  1.55106e-06      1.24289 
        1000     0.213332 -0.000588329  3.79108e-06      1.24289 
        1000     0.333332 -0.000864087  6.35092e-06      1.24289 
        1000         0.48  -0.00103011    7.411e-06      1.24289 
        1000     0.653331  -0.00106209  4.96654e-06      1.24289 
        1000     0.853332  -0.00100074 -2.41855e-06      1.24289 
        1000         1.08 -0.000919398 -1.56886e-05      1.24289 
        1000      1.33333 -0.000870332 -3.49735e-05      1.24289 
        1000      1.61333 -0.000829891 -5.80573e-05      1.24289 
        1000         1.92 -0.000722123  -8.0704e-05      1.24289 
        1000      2.25333 -0.000562633 -0.000101073      1.24289 
        1000      2.61333 -0.000379697 -0.000118968       1.2429 
        1000            3 -0.000184545 -0.000134361      1.24291 
