Variables = x, y, u, v, p

Zone, I=416, F=POINT
         -50            0            0            0      39.6685 
         -50     0.013333 -6.03333e-05 -3.27421e-09      39.6685 
         -50     0.053333 -3.71774e-05 -2.46851e-07      39.6685 
         -50         0.12 -6.52586e-06 -1.00903e-06      39.6685 
         -50     0.213332  2.29875e-05 -2.32897e-06      39.6685 
         -50     0.333332  4.43631e-05 -3.93119e-06      39.6685 
         -50         0.48  5.52048e-05 -5.80513e-06      39.6684 
         -50     0.653331  5.53728e-05 -6.40827e-06      39.6682 
         -50     0.853332  4.47352e-05 -7.93212e-06       39.668 
         -50         1.08  2.47767e-05 -9.36806e-06      39.6678 
         -50      1.33333 -1.79787e-07 -1.04617e-05      39.6674 
         -50      1.61333 -2.60165e-05 -1.09143e-05      39.6668 
         -50         1.92 -5.27914e-05 -1.09391e-05      39.6661 
         -50      2.25333  -6.6847e-05 -7.23177e-06      39.6652 
         -50      2.61333 -6.77609e-05  -3.1026e-06      39.6641 
         -50            3 -6.84473e-05 -5.97095e-06      39.6627 
         -25            0           -0           -0        38.09 
         -25     0.013333 -5.04876e-05  4.58909e-09        38.09 
         -25     0.053333   -5.255e-05  7.27705e-09        38.09 
         -25         0.12 -5.63639e-05 -2.69392e-08        38.09 
         -25     0.213332 -5.64572e-05 -2.89601e-07        38.09 
         -25     0.333332 -5.04199e-05 -1.02379e-06      38.0899 
         -25         0.48 -4.30723e-05 -2.29029e-06      38.0899 
         -25     0.653331 -3.91324e-05 -3.94238e-06      38.0899 
         -25     0.853332 -3.90355e-05  -5.8301e-06      38.0898 
         -25         1.08 -3.97317e-05 -7.72955e-06      38.0897 
         -25      1.33333 -3.72122e-05 -9.58853e-06      38.0895 
         -25      1.61333 -3.21663e-05 -1.10112e-05      38.0893 
         -25         1.92 -2.82653e-05 -1.19259e-05      38.0891 
         -25      2.25333 -2.29888e-05 -1.18112e-05      38.0887 
         -25      2.61333 -2.09413e-05 -1.21099e-05      38.0883 
         -25            3 -2.77978e-05 -1.54584e-05      38.0878 
           0            0            0            0      36.8075 
           0     0.013333  -0.00016451  8.31602e-05      36.8084 
           0     0.053333 -8.66762e-05  4.41449e-05      36.8103 
           0         0.12 -5.71977e-05  2.49673e-05      36.8125 
           0     0.213332 -3.76878e-05  1.75426e-05      36.8148 
           0     0.333332 -2.39363e-05  1.15332e-05      36.8171 
           0         0.48 -1.72225e-05  5.53738e-06      36.8193 
           0     0.653331 -1.88749e-05 -4.80834e-07      36.8215 
           0     0.853332 -2.64163e-05 -6.51824e-06      36.8236 
           0         1.08 -3.34362e-05 -1.21669e-05      36.8256 
           0      1.33333  -3.7913e-05 -1.69308e-05      36.8275 
           0      1.61333 -4.08165e-05 -2.04447e-05      36.8292 
           0         1.92 -3.71786e-05 -2.22936e-05      36.8309 
           0      2.25333  -2.7584e-05 -2.26218e-05      36.8324 
           0      2.61333 -2.17584e-05 -2.24955e-05      36.8338 
           0            3 -2.30512e-05 -2.25828e-05       36.835 
          20            0            0            0      36.0363 
          20     0.013333  0.000190122  0.000204391      36.0355 
          20     0.053333  0.000399788  0.000326842      36.0337 
          20         0.12  0.000323541    0.0002537      36.0317 
          20     0.213332   0.00019667  0.000175494      36.0296 
          20     0.333332  9.05401e-05  0.000126408      36.0274 
          20         0.48    1.818e-05  9.85847e-05      36.0253 
          20     0.653331 -1.52687e-05  8.53979e-05      36.0232 
          20     0.853332  -2.7647e-05   8.0721e-05      36.0212 
          20         1.08 -3.93754e-05  7.92958e-05      36.0192 
          20      1.33333 -5.24961e-05  7.83685e-05      36.0173 
          20      1.61333 -6.55148e-05  7.64507e-05      36.0155 
          20         1.92 -7.77267e-05  7.26162e-05      36.0137 
          20      2.25333 -8.70668e-05  6.66438e-05       36.012 
          20      2.61333 -9.18827e-05  5.86703e-05      36.0104 
          20            3  -9.1964e-05  4.94145e-05      36.0087 
          40            0  -6.0531e-20  1.83729e-24      35.1824 
          40     0.013333  -8.8187e-06  5.15805e-08      35.1824 
          40     0.053333   4.5665e-05  8.08481e-07      35.1824 
          40         0.12  7.01381e-05  3.88589e-06      35.1824 
          40     0.213332  4.22607e-05  1.08929e-05      35.1824 
          40     0.333332 -9.47079e-06  2.22088e-05      35.1824 
          40         0.48 -4.55666e-05  3.71343e-05      35.1824 
          40     0.653331 -4.99488e-05  5.48035e-05      35.1824 
          40     0.853332 -3.65769e-05  7.39229e-05      35.1824 
          40         1.08 -2.64325e-05  9.25477e-05      35.1823 
          40      1.33333 -2.45636e-05  0.000108372      35.1823 
          40      1.61333 -2.74309e-05  0.000119328      35.1823 
          40         1.92 -3.11904e-05  0.000124092      35.1822 
          40      2.25333 -3.48145e-05  0.000122413      35.1821 
          40      2.61333 -3.66615e-05  0.000115472       35.182 
          40            3 -3.55467e-05   0.00010522      35.1819 
          60            0 -2.11882e-20  5.01366e-25      34.4035 
          60     0.013333  1.48787e-05 -1.48451e-08      34.4035 
          60     0.053333  0.000140865 -1.17506e-07      34.4035 
          60         0.12  0.000276321  1.97141e-07      34.4035 
          60     0.213332  0.000351073   2.7337e-06      34.4035 
          60     0.333332  0.000346298  9.68448e-06      34.4035 
          60         0.48  0.000301997  2.19401e-05      34.4035 
          60     0.653331  0.000265492  3.86234e-05      34.4035 
          60     0.853332  0.000243447  5.74593e-05      34.4035 
          60         1.08  0.000209784  7.59841e-05      34.4035 
          60      1.33333  0.000151486  9.21008e-05      34.4034 
          60      1.61333  8.06321e-05  0.000104739      34.4034 
          60         1.92  1.04453e-05   0.00011274      34.4034 
          60      2.25333 -4.84542e-05  0.000115198      34.4033 
          60      2.61333 -8.83065e-05  0.000112861      34.4033 
          60            3 -0.000108181  0.000106213      34.4032 
          80            0            0            0      33.6498 
          80     0.013333  7.20351e-06  -1.4942e-07      33.6498 
          80     0.053333  0.000146583 -2.11524e-06      33.6498 
          80         0.12  0.000378956 -8.63407e-06      33.6498 
          80     0.213332  0.000626678 -2.01018e-05      33.6498 
          80     0.333332  0.000795023  -3.3603e-05      33.6498 
          80         0.48  0.000857904 -4.59873e-05      33.6498 
          80     0.653331  0.000837412 -5.68235e-05      33.6498 
          80     0.853332  0.000741031 -6.79499e-05      33.6498 
          80         1.08  0.000584943 -7.95876e-05      33.6498 
          80      1.33333  0.000417156 -8.98609e-05      33.6497 
          80      1.61333  0.000254833  -9.6658e-05      33.6497 
          80         1.92  9.04146e-05 -9.94261e-05      33.6497 
          80      2.25333 -5.27729e-05 -9.79029e-05      33.6497 
          80      2.61333 -0.000154857 -9.22939e-05      33.6496 
          80            3  -0.00021086 -8.42815e-05      33.6495 
         100            0            0            0      32.9113 
         100     0.013333 -5.10885e-05  -1.8328e-07      32.9113 
         100     0.053333 -5.38753e-05 -2.69917e-06      32.9113 
         100         0.12  3.26883e-05 -1.17453e-05      32.9113 
         100     0.213332  0.000196642 -2.98204e-05      32.9113 
         100     0.333332  0.000349369 -5.56329e-05      32.9113 
         100         0.48  0.000424385 -8.65317e-05      32.9113 
         100     0.653331  0.000405769   -0.0001215      32.9113 
         100     0.853332  0.000309817 -0.000159988      32.9113 
         100         1.08  0.000201214 -0.000198167      32.9113 
         100      1.33333  0.000128567 -0.000231012      32.9113 
         100      1.61333  6.50912e-05 -0.000255724      32.9113 
         100         1.92 -4.03127e-06 -0.000270309      32.9113 
         100      2.25333 -6.62791e-05 -0.000273024      32.9112 
         100      2.61333 -0.000108558 -0.000264078      32.9112 
         100            3 -0.000126192 -0.000246226      32.9112 
         150            0 -1.20147e-20  6.47438e-26      31.1014 
         150     0.013333   3.3233e-05  8.77262e-08      31.1014 
         150     0.053333  0.000173905  1.43246e-06      31.1014 
         150         0.12  0.000264715  7.15907e-06      31.1014 
         150     0.213332  0.000232125  2.09865e-05      31.1014 
         150     0.333332  0.000114853  4.45087e-05      31.1014 
         150         0.48  3.06289e-06  7.63331e-05      31.1014 
         150     0.653331 -4.80631e-05  0.000113892      31.1014 
         150     0.853332 -4.15882e-05  0.000154494      31.1014 
         150         1.08 -2.14221e-05   0.00019466      31.1014 
         150      1.33333 -2.18021e-05  0.000230337      31.1014 
         150      1.61333 -3.16973e-05  0.000258755      31.1014 
         150         1.92 -3.85194e-05  0.000277685      31.1014 
         150      2.25333 -4.30258e-05  0.000284771      31.1014 
         150      2.61333 -4.62491e-05  0.000280032      31.1014 
         150            3 -4.76668e-05  0.000265215      31.1014 
         200            0            0            0      29.3144 
         200     0.013333  0.000110347   4.3806e-08      29.3144 
         200     0.053333  0.000456161  9.18322e-07      29.3144 
         200         0.12  0.000798478  5.80366e-06      29.3144 
         200     0.213332  0.000952672  2.03971e-05      29.3144 
         200     0.333332  0.000898697  4.94133e-05      29.3144 
         200         0.48   0.00075959  9.31543e-05      29.3144 
         200     0.653331  0.000654749  0.000148196      29.3144 
         200     0.853332  0.000605244  0.000209397      29.3144 
         200         1.08  0.000551902  0.000271022      29.3144 
         200      1.33333  0.000447966  0.000327418      29.3144 
         200      1.61333  0.000310946  0.000374831      29.3144 
         200         1.92  0.000167643   0.00041003      29.3144 
         200      2.25333  2.85132e-05  0.000428935      29.3144 
         200      2.61333 -9.18448e-05  0.000430722      29.3143 
         200            3 -0.000176638  0.000416591      29.3143 
         250            0            0            0      27.5346 
         250     0.013333  0.000109375 -1.10643e-08      27.5346 
         250     0.053333  0.000469387  8.77069e-08      27.5346 
         250         0.12  0.000870592   1.9943e-06      27.5346 
         250     0.213332   0.00112776  1.00239e-05      27.5346 
         250     0.333332    0.0011815  2.86803e-05      27.5346 
         250         0.48   0.00111459  5.94277e-05      27.5346 
         250     0.653331   0.00103951  0.000100427      27.5346 
         250     0.853332  0.000990764  0.000147387      27.5346 
         250         1.08  0.000908807  0.000194221      27.5346 
         250      1.33333  0.000745436  0.000235353      27.5346 
         250      1.61333  0.000541334  0.000269105      27.5346 
         250         1.92  0.000330513  0.000294616      27.5346 
         250      2.25333  0.000120762  0.000308916      27.5346 
         250      2.61333 -6.82821e-05  0.000311335      27.5346 
         250            3 -0.000211805  0.000302293      27.5345 
         300            0            0            0      25.7561 
         300     0.013333 -0.000158597 -9.69762e-08      25.7561 
         300     0.053333 -0.000450311 -1.65169e-06      25.7561 
         300         0.12 -0.000705702 -8.73204e-06      25.7561 
         300     0.213332 -0.000756798 -2.72167e-05      25.7561 
         300     0.333332 -0.000604359 -6.12202e-05      25.7561 
         300         0.48 -0.000385781 -0.000110412      25.7561 
         300     0.653331 -0.000230079 -0.000171303      25.7561 
         300     0.853332 -0.000173899 -0.000239609      25.7561 
         300         1.08 -0.000171147 -0.000310624      25.7561 
         300      1.33333 -0.000158071 -0.000379125      25.7561 
         300      1.61333 -0.000119223 -0.000440527      25.7561 
         300         1.92 -7.31937e-05 -0.000490728      25.7561 
         300      2.25333 -2.81939e-05 -0.000525087      25.7561 
         300      2.61333  1.20059e-05 -0.000540657      25.7561 
         300            3   4.2541e-05 -0.000536831      25.7561 
         350            0           -0           -0      23.9778 
         350     0.013333 -3.70022e-06  1.46001e-07      23.9778 
         350     0.053333  3.09391e-05  2.16838e-06      23.9778 
         350         0.12 -2.28248e-05  9.66336e-06      23.9778 
         350     0.213332  -0.00019024  2.55576e-05      23.9778 
         350     0.333332 -0.000406725  5.01807e-05      23.9778 
         350         0.48 -0.000590931  8.18859e-05      23.9778 
         350     0.653331 -0.000698406  0.000119176      23.9778 
         350     0.853332 -0.000710661  0.000161863      23.9778 
         350         1.08 -0.000626845  0.000209811      23.9778 
         350      1.33333 -0.000494129   0.00026031      23.9778 
         350      1.61333 -0.000375198  0.000308117      23.9778 
         350         1.92  -0.00026898  0.000348949      23.9778 
         350      2.25333 -0.000161811  0.000379586      23.9778 
         350      2.61333 -5.78568e-05   0.00039752      23.9778 
         350            3  3.08486e-05  0.000401658      23.9778 
         400            0            0            0      22.1986 
         400     0.013333 -0.000103197 -5.99752e-08      22.1986 
         400     0.053333 -0.000267993 -9.97792e-07      22.1986 
         400         0.12 -0.000417479 -5.13581e-06      22.1986 
         400     0.213332 -0.000461529 -1.56296e-05      22.1986 
         400     0.333332 -0.000401224  -3.4495e-05      22.1986 
         400         0.48  -0.00030953 -6.13652e-05      22.1986 
         400     0.653331 -0.000253103 -9.43698e-05      22.1986 
         400     0.853332 -0.000248004 -0.000131329      22.1986 
         400         1.08 -0.000262573 -0.000169676      22.1986 
         400      1.33333 -0.000255018 -0.000206562      22.1986 
         400      1.61333 -0.000219265 -0.000239868      22.1986 
         400         1.92 -0.000173066 -0.000267922      22.1986 
         400      2.25333 -0.000123216 -0.000288698      22.1986 
         400      2.61333 -7.36379e-05 -0.000300311      22.1987 
         400            3 -2.87113e-05 -0.000301721      22.1987 
         450            0            0            0       20.418 
         450     0.013333 -0.000138603  4.39899e-08       20.418 
         450     0.053333 -0.000418703  4.63657e-07       20.418 
         450         0.12 -0.000753616   7.8689e-07       20.418 
         450     0.213332 -0.000983421 -1.98675e-06       20.418 
         450     0.333332   -0.0010249 -1.21012e-05       20.418 
         450         0.48 -0.000931744 -3.15909e-05       20.418 
         450     0.653331 -0.000812223 -5.88387e-05       20.418 
         450     0.853332 -0.000717659 -8.99543e-05       20.418 
         450         1.08 -0.000622702 -0.000120701       20.418 
         450      1.33333 -0.000501233 -0.000148634       20.418 
         450      1.61333 -0.000375799 -0.000173833       20.418 
         450         1.92 -0.000258248 -0.000196209       20.418 
         450      2.25333 -0.000140228 -0.000214003       20.418 
         450      2.61333 -2.48835e-05 -0.000225557       20.418 
         450            3  7.51329e-05 -0.000229899       20.418 
         500            0           -0           -0      18.6366 
         500     0.013333  9.49308e-05  5.46489e-08      18.6366 
         500     0.053333  0.000407916  9.53175e-07      18.6366 
         500         0.12  0.000738371   5.1829e-06      18.6366 
         500     0.213332  0.000929526   1.6642e-05      18.6366 
         500     0.333332  0.000938609  3.86424e-05      18.6366 
         500         0.48  0.000838005  7.20711e-05      18.6366 
         500     0.653331  0.000731065  0.000115699      18.6366 
         500     0.853332  0.000679271  0.000167493      18.6366 
         500         1.08  0.000675185  0.000224499      18.6366 
         500      1.33333  0.000651622  0.000281952      18.6366 
         500      1.61333  0.000560662  0.000334823      18.6366 
         500         1.92  0.000433453  0.000380474      18.6366 
         500      2.25333  0.000294297  0.000416633      18.6366 
         500      2.61333  0.000152363  0.000440607      18.6366 
         500            3   1.6827e-05  0.000450378      18.6366 
         550            0           -0           -0      16.8529 
         550     0.013333 -0.000105292  1.12545e-07      16.8529 
         550     0.053333 -0.000330623  1.60566e-06      16.8529 
         550         0.12 -0.000689797  6.68095e-06      16.8529 
         550     0.213332  -0.00108758  1.59654e-05      16.8529 
         550     0.333332  -0.00139455  2.72516e-05      16.8529 
         550         0.48  -0.00154561  3.70951e-05      16.8529 
         550     0.653331  -0.00156818  4.34765e-05      16.8529 
         550     0.853332  -0.00151789   4.6801e-05      16.8529 
         550         1.08  -0.00141702  4.89529e-05      16.8529 
         550      1.33333  -0.00126472  5.13825e-05      16.8529 
         550      1.61333  -0.00107341  5.41298e-05      16.8529 
         550         1.92 -0.000860475  5.64049e-05      16.8529 
         550      2.25333  -0.00062779  5.77254e-05      16.8529 
         550      2.61333 -0.000382681  5.79025e-05      16.8529 
         550            3 -0.000144219  5.67669e-05      16.8529 
         600            0 -4.85439e-20 -7.79369e-27      15.0691 
         600     0.013333 -6.10605e-05 -1.93215e-07      15.0691 
         600     0.053333 -7.56952e-05 -2.92895e-06      15.0691 
         600         0.12  5.76429e-05 -1.34217e-05      15.0691 
         600     0.213332  0.000379602  -3.6465e-05      15.0691 
         600     0.333332  0.000776885 -7.28679e-05      15.0691 
         600         0.48   0.00108937 -0.000119262      15.0691 
         600     0.653331   0.00124009 -0.000171434      15.0691 
         600     0.853332   0.00124108 -0.000227147      15.0691 
         600         1.08   0.00113305 -0.000285717      15.0691 
         600      1.33333   0.00096645 -0.000345539      15.0691 
         600      1.61333  0.000793593 -0.000403143      15.0691 
         600         1.92  0.000629932 -0.000454811      15.0691 
         600      2.25333  0.000456625 -0.000497181      15.0691 
         600      2.61333  0.000270978 -0.000527362      15.0691 
         600            3  8.86381e-05 -0.000542842      15.0691 
         650            0           -0           -0      13.2827 
         650     0.013333  9.00912e-05  2.28023e-07      13.2827 
         650     0.053333  0.000333817  3.55982e-06      13.2827 
         650         0.12  0.000437055  1.69813e-05      13.2827 
         650     0.213332  0.000242108  4.81921e-05      13.2827 
         650     0.333332 -0.000164308  0.000100435      13.2827 
         650         0.48 -0.000558298  0.000170694      13.2827 
         650     0.653331 -0.000780004  0.000253323      13.2827 
         650     0.853332 -0.000801157   0.00034418      13.2827 
         650         1.08 -0.000679068  0.000440317      13.2827 
         650      1.33333 -0.000521081  0.000536909      13.2827 
         650      1.61333 -0.000414816  0.000627591      13.2827 
         650         1.92 -0.000345897  0.000707919      13.2827 
         650      2.25333 -0.000273713  0.000773996      13.2827 
         650      2.61333 -0.000190678  0.000821676      13.2827 
         650            3 -0.000108728  0.000846937      13.2827 
         700            0            0            0      11.4947 
         700     0.013333 -0.000239717 -9.90084e-08      11.4947 
         700     0.053333 -0.000749339 -1.69617e-06      11.4947 
         700         0.12  -0.00128458 -9.08172e-06      11.4947 
         700     0.213332  -0.00157661 -2.88937e-05      11.4947 
         700     0.333332  -0.00154703 -6.67561e-05      11.4947 
         700         0.48  -0.00132479 -0.000123982      11.4947 
         700     0.653331  -0.00109701 -0.000197947      11.4947 
         700     0.853332 -0.000976031 -0.000284807      11.4947 
         700         1.08 -0.000963674 -0.000380276      11.4947 
         700      1.33333 -0.000966325 -0.000478216      11.4947 
         700      1.61333 -0.000884747 -0.000571256      11.4947 
         700         1.92 -0.000729656 -0.000654785      11.4947 
         700      2.25333 -0.000553006 -0.000725733      11.4947 
         700      2.61333  -0.00037182 -0.000780096      11.4947 
         700            3 -0.000187747 -0.000813751      11.4947 
         750            0            0            0      9.70582 
         750     0.013333  9.63359e-06 -1.80413e-07      9.70582 
         750     0.053333  0.000178989 -2.68217e-06      9.70582 
         750         0.12  0.000539974 -1.19634e-05      9.70582 
         750     0.213332   0.00105909 -3.15296e-05      9.70582 
         750     0.333332   0.00158355 -6.10132e-05      9.70582 
         750         0.48    0.0019557 -9.64848e-05      9.70582 
         750     0.653331   0.00212513 -0.000133624      9.70582 
         750     0.853332   0.00213488 -0.000170403      9.70582 
         750         1.08   0.00203739 -0.000207184      9.70582 
         750      1.33333    0.0018567 -0.000244908      9.70582 
         750      1.61333   0.00161304 -0.000283287      9.70582 
         750         1.92   0.00134037 -0.000319947      9.70581 
         750      2.25333   0.00104678 -0.000352283      9.70581 
         750      2.61333  0.000731782 -0.000377843       9.7058 
         750            3  0.000405019 -0.000394545      9.70578 
         800            0           -0           -0      7.91375 
         800     0.013333  0.000291756  2.79807e-08      7.91375 
         800     0.053333   0.00111992  7.81498e-07      7.91375 
         800         0.12   0.00206701   6.0208e-06      7.91375 
         800     0.213332   0.00269326  2.43719e-05      7.91375 
         800     0.333332   0.00278652  6.59374e-05      7.91375 
         800         0.48   0.00248351   0.00013556      7.91375 
         800     0.653331     0.002089  0.000230057      7.91376 
         800     0.853332   0.00180801  0.000341474      7.91376 
         800         1.08   0.00164704  0.000461016      7.91376 
         800      1.33333   0.00149697  0.000580866      7.91376 
         800      1.61333   0.00128324   0.00069523      7.91375 
         800         1.92   0.00102609  0.000801146      7.91375 
         800      2.25333  0.000754499  0.000894654      7.91374 
         800      2.61333  0.000474576  0.000970634      7.91372 
         800            3  0.000190544   0.00102363       7.9137 
         850            0           -0           -0      6.11636 
         850     0.013333 -0.000285008  5.85916e-07      6.11636 
         850     0.053333  -0.00113712  8.53853e-06      6.11636 
         850         0.12  -0.00265113  3.68095e-05      6.11636 
         850     0.213332  -0.00451571  9.24691e-05      6.11636 
         850     0.333332  -0.00611592  0.000168487      6.11636 
         850         0.48  -0.00700515  0.000248914      6.11636 
         850     0.653331  -0.00719003  0.000322034      6.11636 
         850     0.853332  -0.00692642  0.000387482      6.11636 
         850         1.08  -0.00639014  0.000452716      6.11636 
         850      1.33333  -0.00564662  0.000523002      6.11636 
         850      1.61333  -0.00480625  0.000595244      6.11636 
         850         1.92  -0.00398627  0.000661481      6.11638 
         850      2.25333  -0.00314364  0.000716404      6.11641 
         850      2.61333  -0.00223843  0.000757319      6.11645 
         850            3  -0.00129155  0.000781539       6.1165 
         900            0 -2.76132e-19  5.59346e-26      4.32019 
         900     0.013333 -0.000688682 -4.38064e-07      4.32019 
         900     0.053333  -0.00225707 -7.24439e-06      4.32019 
         900         0.12  -0.00377235 -3.73232e-05      4.32019 
         900     0.213332  -0.00434738 -0.000115028      4.32019 
         900     0.333332  -0.00380389 -0.000259387      4.32019 
         900         0.48  -0.00269168 -0.000472432      4.32018 
         900     0.653331  -0.00171751 -0.000741335      4.32018 
         900     0.853332  -0.00125537   -0.0010498      4.32018 
         900         1.08  -0.00127282   -0.0013833      4.32018 
         900      1.33333    -0.001454  -0.00172504      4.32018 
         900      1.61333  -0.00145563  -0.00205503      4.32019 
         900         1.92  -0.00122366  -0.00235896      4.32019 
         900      2.25333 -0.000929109   -0.0026276       4.3202 
         900      2.61333 -0.000643078  -0.00284874      4.32022 
         900            3 -0.000352549   -0.0030079      4.32024 
         950            0           -0           -0      2.52374 
         950     0.013333  0.000325825 -5.83456e-07      2.52374 
         950     0.053333   0.00144533 -8.33208e-06      2.52374 
         950         0.12   0.00326308 -3.48079e-05      2.52374 
         950     0.213332   0.00533866 -8.40358e-05      2.52374 
         950     0.333332   0.00702251 -0.000146388      2.52374 
         950         0.48   0.00794263 -0.000206332      2.52374 
         950     0.653331   0.00820253 -0.000255204      2.52375 
         950     0.853332   0.00808984 -0.000296376      2.52375 
         950         1.08    0.0077134 -0.000341827      2.52375 
         950      1.33333    0.0069944 -0.000403224      2.52375 
         950      1.61333   0.00597644 -0.000481573      2.52375 
         950         1.92   0.00492813   -0.0005649      2.52373 
         950      2.25333   0.00391014 -0.000641747       2.5237 
         950      2.61333   0.00286388 -0.000707604      2.52366 
         950            3   0.00175737 -0.000760011       2.5236 
        1000            0           -0           -0     0.720542 
        1000     0.013333   0.00021872  2.89819e-07     0.720543 
        1000     0.053333  0.000781285   4.5097e-06     0.720543 
        1000         0.12   0.00123232  2.16335e-05     0.720543 
        1000     0.213332   0.00125624  6.19695e-05     0.720543 
        1000     0.333332   0.00089137  0.000130611     0.720543 
        1000         0.48   0.00043753  0.000224516     0.720544 
        1000     0.653331  0.000162897  0.000337082     0.720544 
        1000     0.853332   0.00015759  0.000463695     0.720544 
        1000         1.08  0.000384259  0.000602125     0.720544 
        1000      1.33333  0.000704965  0.000747392     0.720544 
        1000      1.61333  0.000904879  0.000888407     0.720544 
        1000         1.92  0.000877118   0.00101463     0.720545 
        1000      2.25333  0.000764486    0.0011222     0.720546 
        1000      2.61333  0.000650802   0.00120825     0.720548 
        1000            3  0.000532125   0.00126832     0.720549 
