Variables = x, y, u, v, p

Zone, I=416, F=POINT
         -50            0            0            0      41.5592 
         -50     0.013333  1.44943e-05  2.53107e-08      41.5592 
         -50     0.053333 -3.03198e-06   2.1831e-08      41.5592 
         -50         0.12 -9.00096e-06 -8.60148e-08      41.5592 
         -50     0.213332 -1.14915e-05 -5.13181e-07      41.5592 
         -50     0.333332 -1.09389e-05 -1.17101e-06      41.5591 
         -50         0.48 -9.84306e-06 -1.74338e-06      41.5591 
         -50     0.653331 -9.82525e-06 -3.89973e-06      41.5589 
         -50     0.853332 -1.07073e-05 -4.78639e-06      41.5587 
         -50         1.08 -9.51913e-06 -6.48415e-06      41.5584 
         -50      1.33333 -4.74327e-06 -7.71483e-06       41.558 
         -50      1.61333   2.4173e-06 -8.87875e-06      41.5575 
         -50         1.92  6.93713e-06 -9.83907e-06      41.5567 
         -50      2.25333  5.73367e-06  -1.0779e-05      41.5558 
         -50      2.61333  3.30893e-06 -1.02709e-05      41.5546 
         -50            3  4.66499e-06 -7.47187e-06      41.5531 
         -25            0           -0           -0      39.8991 
         -25     0.013333  8.40738e-06  4.72006e-09      39.8991 
         -25     0.053333 -9.91598e-06 -3.43056e-08      39.8991 
         -25         0.12 -2.08388e-05 -2.01226e-07      39.8991 
         -25     0.213332 -2.82122e-05 -6.20309e-07      39.8991 
         -25     0.333332 -3.14848e-05 -1.44493e-06      39.8991 
         -25         0.48  -3.3265e-05 -2.82697e-06       39.899 
         -25     0.653331 -3.61584e-05 -4.60256e-06       39.899 
         -25     0.853332 -3.78849e-05 -6.75838e-06      39.8989 
         -25         1.08 -3.32391e-05 -8.87763e-06      39.8988 
         -25      1.33333 -2.23028e-05 -1.05964e-05      39.8986 
         -25      1.61333 -9.90002e-06 -1.19445e-05      39.8984 
         -25         1.92   3.9402e-06 -1.23819e-05      39.8981 
         -25      2.25333  1.04739e-05 -1.35397e-05      39.8978 
         -25      2.61333  7.91195e-06 -1.51865e-05      39.8973 
         -25            3  5.14847e-06 -1.40442e-05      39.8968 
           0            0            0            0      38.5497 
           0     0.013333 -3.11299e-05 -6.43694e-06      38.5509 
           0     0.053333 -4.91961e-05  4.49413e-06       38.553 
           0         0.12 -7.59872e-05  2.18897e-06      38.5554 
           0     0.213332  -9.3264e-05  3.20813e-06      38.5578 
           0     0.333332 -9.56212e-05  3.08265e-06      38.5602 
           0         0.48 -9.14106e-05  1.93442e-06      38.5626 
           0     0.653331 -8.57311e-05  1.53704e-08      38.5649 
           0     0.853332 -7.57208e-05 -2.20082e-06      38.5672 
           0         1.08 -5.89014e-05 -4.37812e-06      38.5693 
           0      1.33333  -3.7742e-05 -6.40487e-06      38.5713 
           0      1.61333 -1.36529e-05 -8.17318e-06      38.5732 
           0         1.92  1.00081e-05 -9.59495e-06      38.5749 
           0      2.25333  3.02956e-05 -1.00756e-05      38.5765 
           0      2.61333  4.86288e-05 -9.02043e-06       38.578 
           0            3  5.49694e-05 -1.02925e-05      38.5793 
          20            0            0            0      37.7401 
          20     0.013333 -0.000825146 -0.000662439       37.739 
          20     0.053333  -0.00114682 -0.000872682      37.7369 
          20         0.12 -0.000926486 -0.000645732      37.7347 
          20     0.213332 -0.000639105 -0.000445496      37.7324 
          20     0.333332 -0.000423296 -0.000321006      37.7301 
          20         0.48 -0.000287815 -0.000248928      37.7278 
          20     0.653331 -0.000224831 -0.000212193      37.7256 
          20     0.853332 -0.000186457  -0.00019605      37.7235 
          20         1.08 -0.000132111 -0.000188441      37.7214 
          20      1.33333 -6.51944e-05 -0.000182934      37.7194 
          20      1.61333  4.34883e-06 -0.000176044      37.7175 
          20         1.92  6.72848e-05 -0.000165651      37.7156 
          20      2.25333  0.000108616 -0.000151755      37.7138 
          20      2.61333  0.000123956 -0.000134349      37.7121 
          20            3  0.000131436 -0.000111748      37.7104 
          40            0  3.82162e-20  2.79514e-24      36.8411 
          40     0.013333  1.04763e-05 -9.14324e-08      36.8411 
          40     0.053333  2.67461e-05 -1.32616e-06      36.8411 
          40         0.12  8.57231e-05 -5.44279e-06      36.8411 
          40     0.213332  0.000148835 -1.26317e-05      36.8411 
          40     0.333332  0.000171225 -2.11309e-05      36.8411 
          40         0.48  0.000148293 -2.97026e-05      36.8411 
          40     0.653331  9.87319e-05 -3.89619e-05      36.8411 
          40     0.853332  4.64501e-05 -4.90453e-05      36.8411 
          40         1.08  1.30082e-05 -5.79244e-05      36.8411 
          40      1.33333  -5.5522e-06 -6.38041e-05       36.841 
          40      1.61333 -1.74285e-05 -6.57985e-05       36.841 
          40         1.92  -2.7661e-05 -6.37013e-05      36.8409 
          40      2.25333 -3.48021e-05 -5.81723e-05      36.8408 
          40      2.61333  -3.4581e-05 -4.96625e-05      36.8407 
          40            3 -2.74791e-05 -3.99612e-05      36.8406 
          60            0  3.51741e-20  7.55145e-25      36.0215 
          60     0.013333  5.64917e-05 -8.48694e-08      36.0215 
          60     0.053333  0.000187071 -1.10388e-06      36.0215 
          60         0.12  0.000367748 -3.83145e-06      36.0215 
          60     0.213332  0.000512331 -6.91244e-06      36.0215 
          60     0.333332  0.000575974  -7.6783e-06      36.0214 
          60         0.48  0.000583908  -4.9208e-06      36.0214 
          60     0.653331  0.000568787 -2.19753e-07      36.0214 
          60     0.853332  0.000512597  2.57389e-06      36.0214 
          60         1.08  0.000399781  1.46288e-06      36.0214 
          60      1.33333  0.000275448  -1.6401e-06      36.0214 
          60      1.61333  0.000161751 -4.13445e-06      36.0214 
          60         1.92  5.10239e-05  -5.8448e-06      36.0213 
          60      2.25333 -4.46699e-05 -7.00824e-06      36.0213 
          60      2.61333 -0.000112158 -7.42622e-06      36.0212 
          60            3 -0.000145779 -7.61342e-06      36.0211 
          80            0            0            0      35.2279 
          80     0.013333  4.05359e-05 -1.12434e-07      35.2279 
          80     0.053333   0.00014136 -1.58145e-06      35.2279 
          80         0.12  0.000314788 -6.36739e-06      35.2279 
          80     0.213332  0.000491066 -1.45569e-05      35.2279 
          80     0.333332  0.000598594 -2.37776e-05      35.2279 
          80         0.48  0.000625093 -3.15966e-05      35.2279 
          80     0.653331  0.000596557 -3.76938e-05      35.2279 
          80     0.853332  0.000522509 -4.36746e-05      35.2279 
          80         1.08  0.000408592 -5.02704e-05      35.2279 
          80      1.33333  0.000288594 -5.62971e-05      35.2279 
          80      1.61333  0.000178358 -5.98821e-05      35.2279 
          80         1.92  6.80108e-05 -6.07995e-05      35.2279 
          80      2.25333 -2.89337e-05 -5.91497e-05      35.2278 
          80      2.61333 -9.90475e-05 -5.50781e-05      35.2278 
          80            3 -0.000138018 -4.98622e-05      35.2277 
         100            0            0            0      34.4506 
         100     0.013333 -1.06735e-05 -1.69052e-07      34.4506 
         100     0.053333   -2.215e-05 -2.52313e-06      34.4506 
         100         0.12  6.71507e-05 -1.11761e-05      34.4506 
         100     0.213332  0.000247047 -2.89211e-05      34.4506 
         100     0.333332  0.000426029 -5.48143e-05      34.4506 
         100         0.48   0.00052729 -8.59824e-05      34.4506 
         100     0.653331  0.000530333 -0.000120693      34.4506 
         100     0.853332   0.00045173 -0.000157957      34.4506 
         100         1.08  0.000346738 -0.000194503      34.4506 
         100      1.33333  0.000258869 -0.000226112      34.4506 
         100      1.61333  0.000174361 -0.000249982      34.4506 
         100         1.92  8.26939e-05 -0.000263965      34.4505 
         100      2.25333   4.5792e-07  -0.00026635      34.4505 
         100      2.61333 -5.54448e-05 -0.000257369      34.4505 
         100            3 -8.33465e-05 -0.000240725      34.4504 
         150            0  1.50814e-20  1.04323e-25       32.545 
         150     0.013333  2.40341e-06   -2.383e-08       32.545 
         150     0.053333 -1.04246e-05 -3.69531e-07       32.545 
         150         0.12 -1.74477e-07 -1.73937e-06       32.545 
         150     0.213332  3.56337e-05  -4.8674e-06       32.545 
         150     0.333332  8.40235e-05 -9.99329e-06       32.545 
         150         0.48  0.000124578 -1.67221e-05       32.545 
         150     0.653331  0.000146114 -2.44341e-05       32.545 
         150     0.853332  0.000147844  -3.2711e-05       32.545 
         150         1.08  0.000132075 -4.13685e-05       32.545 
         150      1.33333  0.000105471  -5.0066e-05       32.545 
         150      1.61333  7.87576e-05   -5.782e-05       32.545 
         150         1.92  5.13443e-05 -6.37616e-05      32.5449 
         150      2.25333  2.50495e-05 -6.71836e-05      32.5449 
         150      2.61333  4.78643e-06 -6.78552e-05      32.5449 
         150            3 -7.45311e-06 -6.61676e-05      32.5449 
         200            0            0            0      30.6633 
         200     0.013333 -1.36905e-05  3.01318e-08      30.6633 
         200     0.053333 -8.22497e-05  4.12089e-07      30.6633 
         200         0.12 -0.000171905  1.58851e-06      30.6633 
         200     0.213332 -0.000255508  3.35698e-06      30.6633 
         200     0.333332  -0.00030434  4.75556e-06      30.6633 
         200         0.48 -0.000316059  4.88311e-06      30.6633 
         200     0.653331 -0.000306081  3.61422e-06      30.6633 
         200     0.853332 -0.000284372  1.49567e-06      30.6633 
         200         1.08 -0.000251058 -9.20945e-07      30.6633 
         200      1.33333 -0.000206157 -3.25072e-06      30.6633 
         200      1.61333 -0.000153355  -5.3756e-06      30.6633 
         200         1.92 -9.56397e-05 -7.22682e-06      30.6633 
         200      2.25333 -3.74674e-05 -8.59163e-06      30.6633 
         200      2.61333  1.55891e-05 -9.42199e-06      30.6633 
         200            3  5.78805e-05 -9.60358e-06      30.6633 
         250            0            0            0      28.7899 
         250     0.013333 -1.20426e-05  1.21556e-07      28.7899 
         250     0.053333  -0.00010087   1.7669e-06      28.7899 
         250         0.12 -0.000271183  7.56004e-06      28.7899 
         250     0.213332 -0.000485313  1.87574e-05      28.7899 
         250     0.333332 -0.000655905   3.3793e-05      28.7899 
         250         0.48  -0.00073433  4.99118e-05      28.7899 
         250     0.653331  -0.00073191  6.57136e-05      28.7899 
         250     0.853332 -0.000673154  8.15559e-05      28.7899 
         250         1.08  -0.00057557  9.76186e-05      28.7899 
         250      1.33333 -0.000462139  0.000112833      28.7899 
         250      1.61333 -0.000346696  0.000125455      28.7899 
         250         1.92 -0.000224761   0.00013431        28.79 
         250      2.25333  -0.00010135  0.000138549        28.79 
         250      2.61333  9.19746e-06  0.000137583        28.79 
         250            3  9.25421e-05  0.000131847        28.79 
         300            0            0            0      26.9197 
         300     0.013333  2.63767e-05  1.62332e-07      26.9197 
         300     0.053333  2.56942e-05  2.41183e-06      26.9197 
         300         0.12 -6.56926e-05  1.06733e-05      26.9197 
         300     0.213332 -0.000251584  2.76724e-05      26.9197 
         300     0.333332 -0.000440004   5.2584e-05      26.9197 
         300         0.48 -0.000550076  8.25163e-05      26.9197 
         300     0.653331 -0.000564553  0.000115719      26.9197 
         300     0.853332 -0.000496069  0.000152194      26.9197 
         300         1.08 -0.000377755  0.000190869      26.9197 
         300      1.33333 -0.000270234   0.00022792      26.9197 
         300      1.61333 -0.000194555  0.000259366      26.9197 
         300         1.92  -0.00012093  0.000283345      26.9197 
         300      2.25333 -4.52747e-05  0.000297787      26.9197 
         300      2.61333  2.33688e-05   0.00030134      26.9197 
         300            3  7.52023e-05  0.000294151      26.9197 
         350            0           -0           -0      25.0504 
         350     0.013333  5.32414e-05  1.21969e-07      25.0504 
         350     0.053333  0.000127128     1.89e-06      25.0504 
         350         0.12  0.000129137  8.88052e-06      25.0504 
         350     0.213332  5.43362e-06  2.46299e-05      25.0504 
         350     0.333332 -0.000180474  4.99307e-05      25.0504 
         350         0.48 -0.000328071  8.25892e-05      25.0504 
         350     0.653331 -0.000387599  0.000119841      25.0504 
         350     0.853332 -0.000364961  0.000159957      25.0504 
         350         1.08 -0.000296452  0.000201174      25.0504 
         350      1.33333  -0.00023144  0.000240362      25.0504 
         350      1.61333 -0.000187313  0.000274328      25.0504 
         350         1.92 -0.000142288  0.000301168      25.0504 
         350      2.25333 -9.25887e-05  0.000318627      25.0504 
         350      2.61333 -4.23832e-05   0.00032524      25.0505 
         350            3  3.81387e-06  0.000320658      25.0505 
         400            0            0            0      23.1819 
         400     0.013333  9.39553e-05 -1.34353e-07      23.1819 
         400     0.053333  0.000344744 -1.85319e-06      23.1819 
         400         0.12  0.000725536 -7.29022e-06      23.1819 
         400     0.213332   0.00110599 -1.61243e-05      23.1819 
         400     0.333332   0.00135821 -2.50069e-05      23.1819 
         400         0.48   0.00145366 -3.05113e-05      23.1819 
         400     0.653331    0.0014482 -3.19699e-05      23.1819 
         400     0.853332   0.00138539 -3.16435e-05       23.182 
         400         1.08   0.00125576 -3.27766e-05       23.182 
         400      1.33333   0.00105823 -3.66964e-05      23.1819 
         400      1.61333  0.000835395 -4.17455e-05      23.1819 
         400         1.92  0.000606706 -4.60826e-05      23.1819 
         400      2.25333  0.000367154 -4.94716e-05      23.1819 
         400      2.61333   0.00012872 -5.15319e-05      23.1819 
         400            3 -8.18169e-05 -5.20103e-05      23.1819 
         450            0            0            0      21.3125 
         450     0.013333 -4.45665e-05    4.221e-09      21.3125 
         450     0.053333 -0.000186672 -7.77941e-09      21.3125 
         450         0.12 -0.000349749 -4.88116e-07      21.3125 
         450     0.213332 -0.000474504 -2.66069e-06      21.3125 
         450     0.333332 -0.000532457 -7.88834e-06      21.3125 
         450         0.48 -0.000541963 -1.67229e-05      21.3125 
         450     0.653331 -0.000537581 -2.87598e-05      21.3125 
         450     0.853332 -0.000536384 -4.29827e-05      21.3125 
         450         1.08  -0.00052559 -5.78024e-05      21.3125 
         450      1.33333  -0.00047908 -7.12362e-05      21.3125 
         450      1.61333 -0.000396337 -8.20889e-05      21.3125 
         450         1.92 -0.000302282 -9.04545e-05      21.3125 
         450      2.25333 -0.000202722 -9.59493e-05      21.3125 
         450      2.61333 -0.000101366 -9.82426e-05      21.3125 
         450            3 -7.84768e-06 -9.71366e-05      21.3126 
         500            0           -0           -0      19.4437 
         500     0.013333 -4.56993e-05   6.7151e-08      19.4437 
         500     0.053333 -0.000207397  9.27888e-07      19.4437 
         500         0.12 -0.000429701  3.61874e-06      19.4437 
         500     0.213332 -0.000633602  7.70228e-06      19.4437 
         500     0.333332 -0.000735558  1.07825e-05      19.4437 
         500         0.48 -0.000721162  1.03756e-05      19.4437 
         500     0.653331 -0.000639433  5.98761e-06      19.4437 
         500     0.853332 -0.000539068 -1.01036e-06      19.4437 
         500         1.08 -0.000439801 -9.15979e-06      19.4437 
         500      1.33333 -0.000350824 -1.81064e-05      19.4437 
         500      1.61333 -0.000273996 -2.79068e-05      19.4437 
         500         1.92 -0.000196846 -3.80347e-05      19.4437 
         500      2.25333 -0.000115165 -4.75959e-05      19.4437 
         500      2.61333 -3.25883e-05 -5.59343e-05      19.4437 
         500            3  4.31587e-05 -6.25637e-05      19.4437 
         550            0           -0           -0      17.5757 
         550     0.013333   0.00024405 -7.40634e-08      17.5757 
         550     0.053333  0.000863698 -7.63735e-07      17.5757 
         550         0.12     0.001629 -1.12825e-06      17.5757 
         550     0.213332   0.00220879  4.33355e-06      17.5757 
         550     0.333332   0.00241741  2.35875e-05      17.5757 
         550         0.48   0.00233078  6.10336e-05      17.5757 
         550     0.653331   0.00215369  0.000114617      17.5757 
         550     0.853332   0.00200694  0.000177861      17.5757 
         550         1.08   0.00185539  0.000242711      17.5757 
         550      1.33333   0.00162035  0.000302901      17.5757 
         550      1.61333   0.00131781  0.000356617      17.5757 
         550         1.92   0.00100352  0.000404081      17.5757 
         550      2.25333  0.000675978  0.000442766      17.5756 
         550      2.61333  0.000339401  0.000469691      17.5756 
         550            3   1.9561e-05  0.000482554      17.5756 
         600            0 -2.36235e-20 -2.37873e-27      15.7058 
         600     0.013333 -0.000105095 -3.85112e-08      15.7058 
         600     0.053333 -0.000396232 -6.92232e-07      15.7058 
         600         0.12 -0.000722489 -3.81824e-06      15.7058 
         600     0.213332 -0.000965015 -1.21467e-05      15.7058 
         600     0.333332  -0.00108734 -2.75248e-05      15.7058 
         600         0.48  -0.00113331 -5.00841e-05      15.7058 
         600     0.653331  -0.00116674 -7.94148e-05      15.7058 
         600     0.853332  -0.00122997 -0.000115149      15.7058 
         600         1.08  -0.00130251 -0.000154792      15.7058 
         600      1.33333  -0.00128471 -0.000192208      15.7058 
         600      1.61333  -0.00112566 -0.000222064      15.7058 
         600         1.92 -0.000912857 -0.000244634      15.7058 
         600      2.25333 -0.000686858 -0.000260717      15.7058 
         600      2.61333 -0.000452523 -0.000269478      15.7059 
         600            3 -0.000217743 -0.000269797      15.7059 
         650            0           -0           -0      13.8367 
         650     0.013333 -0.000337759 -6.74938e-08      13.8367 
         650     0.053333  -0.00120276 -1.52248e-06      13.8367 
         650         0.12  -0.00210816 -1.03194e-05      13.8367 
         650     0.213332  -0.00256185 -3.86311e-05      13.8367 
         650     0.333332  -0.00240154 -9.88256e-05      13.8367 
         650         0.48  -0.00189199 -0.000194241      13.8367 
         650     0.653331  -0.00141975 -0.000317423      13.8367 
         650     0.853332  -0.00116025  -0.00045593      13.8367 
         650         1.08  -0.00102191 -0.000597026      13.8367 
         650      1.33333 -0.000843485 -0.000731156      13.8367 
         650      1.61333 -0.000615408  -0.00085495      13.8367 
         650         1.92 -0.000410439 -0.000967454      13.8367 
         650      2.25333 -0.000218841  -0.00106313      13.8367 
         650      2.61333 -2.98338e-05  -0.00113469      13.8367 
         650            3    0.0001461  -0.00117587      13.8368 
         700            0            0            0      11.9696 
         700     0.013333  0.000600118  3.55008e-08      11.9696 
         700     0.053333   0.00211073  1.27583e-06      11.9696 
         700         0.12    0.0038524  1.07123e-05      11.9696 
         700     0.213332   0.00503298    4.433e-05      11.9696 
         700     0.333332    0.0053057  0.000119634      11.9696 
         700         0.48   0.00494552  0.000243436      11.9696 
         700     0.653331   0.00447879  0.000409096      11.9696 
         700     0.853332   0.00422077  0.000602931      11.9696 
         700         1.08   0.00410392  0.000807757      11.9696 
         700      1.33333   0.00382668   0.00100449      11.9696 
         700      1.61333   0.00325694   0.00118016      11.9696 
         700         1.92   0.00258626   0.00133391      11.9696 
         700      2.25333   0.00189867    0.0014625      11.9695 
         700      2.61333   0.00119408   0.00155825      11.9695 
         700            3  0.000485297   0.00161279      11.9695 
         750            0            0            0       10.098 
         750     0.013333 -0.000238164  9.99737e-08       10.098 
         750     0.053333 -0.000912191  1.17338e-06       10.098 
         750         0.12   -0.0017807  3.19968e-06       10.098 
         750     0.213332  -0.00254073  2.22752e-06       10.098 
         750     0.333332  -0.00299126  -7.9521e-06       10.098 
         750         0.48  -0.00315858 -3.10186e-05       10.098 
         750     0.653331  -0.00320382 -6.62355e-05       10.098 
         750     0.853332  -0.00324818 -0.000109787       10.098 
         750         1.08  -0.00326246 -0.000154711       10.098 
         750      1.33333  -0.00308784 -0.000191173       10.098 
         750      1.61333  -0.00265876 -0.000212742       10.098 
         750         1.92  -0.00214715 -0.000223084       10.098 
         750      2.25333  -0.00163258 -0.000227086       10.098 
         750      2.61333  -0.00110879  -0.00022517       10.098 
         750            3 -0.000571698 -0.000216301      10.0981 
         800            0           -0           -0      8.22899 
         800     0.013333  -3.8932e-05   1.6498e-07      8.22899 
         800     0.053333 -0.000222487  2.44797e-06      8.22899 
         800         0.12  -0.00057695  1.08085e-05      8.22899 
         800     0.213332  -0.00104905  2.78188e-05      8.22899 
         800     0.333332  -0.00147338  5.17761e-05      8.22899 
         800         0.48   -0.0017114  7.79138e-05      8.22899 
         800     0.653331  -0.00174892  0.000102741      8.22899 
         800     0.853332  -0.00164393  0.000126421      8.22899 
         800         1.08  -0.00144633  0.000150752      8.22899 
         800      1.33333  -0.00121863  0.000174706      8.22899 
         800      1.61333  -0.00103601   0.00019441        8.229 
         800         1.92 -0.000883181  0.000208564        8.229 
         800      2.25333 -0.000708423   0.00021797      8.22901 
         800      2.61333 -0.000504007  0.000222857      8.22902 
         800            3 -0.000290031  0.000222567      8.22903 
         850            0           -0           -0      6.35994 
         850     0.013333  1.78466e-05 -2.54259e-07      6.35994 
         850     0.053333  0.000113903 -3.76755e-06      6.35994 
         850         0.12  0.000421841 -1.66512e-05      6.35994 
         850     0.213332  0.000907522 -4.31458e-05      6.35994 
         850     0.333332   0.00137653 -8.16125e-05      6.35994 
         850         0.48   0.00164914 -0.000126299      6.35994 
         850     0.653331   0.00169597 -0.000173139      6.35994 
         850     0.853332   0.00157264 -0.000222932      6.35995 
         850         1.08   0.00131475 -0.000278802      6.35995 
         850      1.33333  0.000982913 -0.000339944      6.35994 
         850      1.61333  0.000708434 -0.000399474      6.35994 
         850         1.92  0.000542738 -0.000451107      6.35994 
         850      2.25333  0.000400199 -0.000493513      6.35993 
         850      2.61333  0.000241053 -0.000525493      6.35992 
         850            3  7.91406e-05 -0.000544978       6.3599 
         900            0  1.21557e-20 -7.24597e-26      4.48867 
         900     0.013333 -1.68697e-05  3.30399e-07      4.48867 
         900     0.053333 -0.000192239  4.91459e-06      4.48867 
         900         0.12 -0.000655677  2.18361e-05      4.48867 
         900     0.213332  -0.00137246  5.69441e-05      4.48867 
         900     0.333332  -0.00207556  0.000108366      4.48867 
         900         0.48   -0.0025047  0.000168312      4.48867 
         900     0.653331  -0.00260374  0.000230574      4.48867 
         900     0.853332  -0.00245242   0.00029519      4.48867 
         900         1.08  -0.00211663  0.000365798      4.48867 
         900      1.33333  -0.00167796  0.000442017      4.48867 
         900      1.61333  -0.00129485  0.000515997      4.48867 
         900         1.92  -0.00104052  0.000580108      4.48867 
         900      2.25333 -0.000810785  0.000632924      4.48868 
         900      2.61333 -0.000552075  0.000672891       4.4887 
         900            3 -0.000279743  0.000697426      4.48872 
         950            0           -0           -0      2.61926 
         950     0.013333 -0.000142392 -3.89059e-07      2.61926 
         950     0.053333 -0.000410471 -6.02241e-06      2.61926 
         950         0.12 -0.000393032 -2.83707e-05      2.61926 
         950     0.213332  0.000114006 -7.94249e-05      2.61926 
         950     0.333332  0.000919235 -0.000163221      2.61926 
         950         0.48   0.00162342 -0.000273442      2.61926 
         950     0.653331   0.00196646 -0.000400258      2.61926 
         950     0.853332   0.00192333 -0.000538032      2.61926 
         950         1.08   0.00159056 -0.000684985      2.61926 
         950      1.33333   0.00115259 -0.000835782      2.61926 
         950      1.61333  0.000839149 -0.000979091      2.61926 
         950         1.92   0.00070276  -0.00110598      2.61926 
         950      2.25333  0.000593589  -0.00121456      2.61925 
         950      2.61333  0.000447022  -0.00130121      2.61924 
         950            3  0.000285147  -0.00136021      2.61923 
        1000            0           -0           -0      0.74936 
        1000     0.013333  0.000508446  8.10914e-08      0.74936 
        1000     0.053333   0.00178472  1.80806e-06      0.74936 
        1000         0.12   0.00325631  1.17738e-05      0.74936 
        1000     0.213332   0.00423037  4.31921e-05      0.74936 
        1000     0.333332   0.00437003   0.00011007     0.749361 
        1000         0.48   0.00389924  0.000217772     0.749363 
        1000     0.653331    0.0033255  0.000360535     0.749364 
        1000     0.853332   0.00300144  0.000526284     0.749366 
        1000         1.08   0.00293305  0.000701871     0.749367 
        1000      1.33333   0.00286977  0.000873575     0.749366 
        1000      1.61333   0.00259171   0.00102953     0.749363 
        1000         1.92   0.00216295   0.00116684     0.749356 
        1000      2.25333    0.0017315   0.00128667     0.749343 
        1000      2.61333   0.00131889   0.00138495     0.749323 
        1000            3  0.000887565   0.00145452     0.749294 
