Variables = x, y, u, v, p

Zone, I=800, F=POINT
         850            0            0            0  -2.0535e-05 
         850     0.000234  7.12611e-05  3.52053e-12 -2.05349e-05 
         850     0.000939  0.000285958  5.66408e-11 -2.05348e-05 
         850     0.002113  0.000643482  2.86765e-10 -2.05347e-05 
         850     0.003759   0.00114475  9.07497e-10 -2.05345e-05 
         850     0.005872   0.00178823  2.21442e-09 -2.05342e-05 
         850     0.008457   0.00257545  4.59316e-09 -2.05339e-05 
         850      0.01151    0.0035052  8.50794e-09 -2.05335e-05 
         850     0.015036   0.00457899  1.45189e-08  -2.0533e-05 
         850     0.019031    0.0057956  2.32589e-08 -2.05325e-05 
         850     0.023493   0.00715444  3.54438e-08 -2.05319e-05 
         850     0.028429   0.00865763  5.19021e-08 -2.05313e-05 
         850     0.033831    0.0103027  7.35002e-08 -2.05306e-05 
         850     0.039706    0.0120919  1.01244e-07 -2.05299e-05 
         850     0.046047    0.0140229  1.36162e-07  -2.0529e-05 
         850     0.052863    0.0160987  1.79455e-07 -2.05282e-05 
         850      0.06015    0.0183178  2.32338e-07 -2.05272e-05 
         850       0.0679     0.020678  2.96064e-07 -2.05262e-05 
         850     0.076126    0.0231831  3.72142e-07 -2.05252e-05 
         850     0.084816    0.0258295   4.6195e-07 -2.05241e-05 
         850     0.093982    0.0286208  5.67186e-07 -2.05229e-05 
         850     0.103611    0.0315532  6.89356e-07 -2.05217e-05 
         850     0.113718    0.0346311  8.30397e-07 -2.05204e-05 
         850     0.124286    0.0378493  9.91899e-07  -2.0519e-05 
         850     0.135333    0.0412134  1.17605e-06 -2.05176e-05 
         850      0.14685    0.0447206  1.38471e-06 -2.05161e-05 
         850     0.158827    0.0483678  1.61977e-06 -2.05146e-05 
         850     0.171284    0.0521611  1.88378e-06  -2.0513e-05 
         850     0.184201    0.0560944  2.17858e-06 -2.05113e-05 
         850     0.197599    0.0601741  2.50697e-06 -2.05096e-05 
         850     0.211455     0.064393  2.87082e-06 -2.05078e-05 
         850     0.225792    0.0687583  3.27322e-06  -2.0506e-05 
         850       0.2406    0.0732668  3.71652e-06 -2.05041e-05 
         850     0.255865    0.0779141  4.20293e-06 -2.05021e-05 
         850     0.271613    0.0827083  4.73604e-06 -2.05001e-05 
         850     0.287818    0.0876411   5.3178e-06  -2.0498e-05 
         850     0.304506    0.0927206  5.95206e-06 -2.04959e-05 
         850      0.32165    0.0979383  6.64078e-06 -2.04936e-05 
         850     0.339278     0.103303  7.38818e-06 -2.04914e-05 
         850     0.357377      0.10881  8.19691e-06 -2.04891e-05 
         850      0.37593     0.114454   9.0694e-06 -2.04867e-05 
         850     0.394968     0.120245  1.00104e-05 -2.04842e-05 
         850     0.414461     0.126173  1.10219e-05 -2.04817e-05 
         850      0.43444     0.132248  1.21089e-05 -2.04791e-05 
         850     0.454872     0.138459  1.32731e-05 -2.04765e-05 
         850     0.475791     0.144816  1.45201e-05 -2.04738e-05 
         850     0.497163     0.151309  1.58516e-05 -2.04711e-05 
         850     0.519021     0.157947  1.72734e-05 -2.04682e-05 
         850      0.54135     0.164726  1.87884e-05 -2.04654e-05 
         850     0.564131     0.171639  2.03991e-05 -2.04624e-05 
         850       0.5874     0.178697   2.2112e-05 -2.04594e-05 
         850     0.611121     0.185889  2.39287e-05 -2.04563e-05 
         850      0.63533     0.193224  2.58558e-05 -2.04532e-05 
         850      0.65999     0.200691  2.78937e-05   -2.045e-05 
         850     0.685139       0.2083  3.00504e-05 -2.04468e-05 
         850     0.710759     0.216047   3.2329e-05 -2.04434e-05 
         850     0.736828     0.223922  3.47317e-05 -2.04401e-05 
         850     0.763387     0.231939  3.72664e-05 -2.04366e-05 
         850     0.790396     0.240083  3.99335e-05 -2.04331e-05 
         850     0.817896     0.248366   4.2741e-05 -2.04295e-05 
         850     0.845843     0.256773  4.56888e-05 -2.04258e-05 
         850     0.874283     0.265318  4.87859e-05 -2.04221e-05 
         850      0.90317     0.273986  5.20316e-05 -2.04183e-05 
         850     0.932551     0.282787  5.54358e-05 -2.04144e-05 
         850     0.962401     0.291715      5.9e-05 -2.04104e-05 
         850     0.992697      0.30076  6.27258e-05 -2.04064e-05 
         850      1.02349     0.309935  6.66235e-05 -2.04023e-05 
         850      1.05472     0.319224  7.06909e-05 -2.03982e-05 
         850      1.08645     0.328638  7.49387e-05 -2.03939e-05 
         850      1.11863     0.338162  7.93639e-05 -2.03896e-05 
         850       1.1513     0.347807  8.39774e-05 -2.03852e-05 
         850      1.18444     0.357563  8.87791e-05 -2.03807e-05 
         850      1.21802     0.367421  9.37685e-05 -2.03761e-05 
         850      1.25211     0.377393  9.89574e-05 -2.03714e-05 
         850      1.28663     0.387459  0.000104341 -2.03667e-05 
         850      1.32165     0.397633  0.000109931 -2.03619e-05 
         850      1.35712     0.407895  0.000115722  -2.0357e-05 
         850      1.39308     0.418258  0.000121727 -2.03519e-05 
         850      1.42951     0.428709  0.000127942 -2.03467e-05 
         850      1.46638     0.439236  0.000134361 -2.03412e-05 
         850      1.50375     0.449852  0.000140986 -2.03353e-05 
         850      1.54156     0.460535  0.000147837 -2.03263e-05 
         850      1.57987     0.471297  0.000154926 -2.03202e-05 
         850      1.61863     0.482116  0.000162232 -2.03159e-05 
         850      1.65788     0.493005  0.000169762 -2.03125e-05 
         850      1.69757     0.503939  0.000177501 -2.03091e-05 
         850      1.73776      0.51493  0.000185459 -2.03053e-05 
         850      1.77842     0.525965   0.00019363 -2.03007e-05 
         850      1.81952     0.537027  0.000202007 -2.02951e-05 
         850      1.86113     0.548128  0.000210602 -2.02884e-05 
         850      1.90316     0.559244  0.000219402 -2.02807e-05 
         850      1.94571     0.570384   0.00022842 -2.02721e-05 
         850      1.98869     0.581523   0.00023764 -2.02629e-05 
         850      2.03217     0.592673  0.000247075 -2.02532e-05 
         850      2.07612     0.603815  0.000256713 -2.02434e-05 
         850      2.12051     0.614934  0.000266543 -2.02337e-05 
         850       2.1654     0.626039  0.000276573 -2.02243e-05 
         850      2.21073     0.637103  0.000286781 -2.02154e-05 
         850      2.25656     0.648135  0.000297175  -2.0207e-05 
         850      2.30283     0.659109  0.000307729 -2.01993e-05 
         850       2.3496     0.670034   0.00031845 -2.01922e-05 
         850      2.39685     0.680891  0.000329317 -2.01856e-05 
         850      2.44452     0.691663  0.000340312 -2.01793e-05 
         850      2.49271     0.702357  0.000351439 -2.01731e-05 
         850      2.54132     0.712947  0.000362668 -2.01667e-05 
         850      2.59044     0.723441  0.000374005 -2.01598e-05 
         850         2.64     0.733812  0.000385419 -2.01522e-05 
         850      2.69006     0.744068  0.000396917 -2.01434e-05 
         850      2.74056     0.754182  0.000408467 -2.01333e-05 
         850      2.79156     0.764161  0.000420076 -2.01218e-05 
         850      2.84304     0.773989  0.000431722 -2.01087e-05 
         850      2.89494     0.783648  0.000443382 -2.00942e-05 
         850      2.94735     0.793145  0.000455062 -2.00785e-05 
         850       3.0002     0.802457  0.000466728  -2.0062e-05 
         850      3.05355      0.81159  0.000478384 -2.00452e-05 
         850      3.10733     0.820521  0.000489993 -2.00288e-05 
         850      3.16163     0.829258  0.000501554 -2.00134e-05 
         850      3.21639     0.837785  0.000513038 -1.99999e-05 
         850      3.27158      0.84609  0.000524413  -1.9989e-05 
         850      3.32729      0.85418  0.000535673 -1.99809e-05 
         850      3.38342     0.862035  0.000546777 -1.99757e-05 
         850      3.44007     0.869663   0.00055772 -1.99725e-05 
         850      3.49714     0.877048  0.000568469 -1.99696e-05 
         850      3.55472     0.884197  0.000579032 -1.99635e-05 
         850      3.61273     0.891096  0.000589399 -1.99488e-05 
         850      3.67125     0.897751  0.000599613 -1.99177e-05 
         850      3.73025     0.904157  0.000609727 -1.98586e-05 
         850      3.78967     0.910305   0.00061949 -1.98161e-05 
         850      3.84961     0.916206  0.000628919 -1.97959e-05 
         850      3.90996     0.921852  0.000638107 -1.97767e-05 
         850      3.97084      0.92725  0.000647049 -1.97583e-05 
         850      4.03214     0.932395  0.000655715 -1.97405e-05 
         850      4.09395     0.937295  0.000664103 -1.97233e-05 
         850      4.15624     0.941949  0.000672196 -1.97065e-05 
         850      4.21895     0.946357  0.000679978   -1.969e-05 
         850      4.28217      0.95053  0.000687455 -1.96738e-05 
         850      4.34582     0.954465  0.000694609 -1.96577e-05 
         850      4.40998     0.958175  0.000701451 -1.96418e-05 
         850      4.47457     0.961658  0.000707966  -1.9626e-05 
         850      4.53968     0.964927  0.000714167 -1.96101e-05 
         850      4.60525     0.967985  0.000720049 -1.95943e-05 
         850      4.67125     0.970837  0.000725612 -1.95784e-05 
         850      4.73777     0.973495  0.000730869 -1.95624e-05 
         850       4.8047     0.975962  0.000735817 -1.95464e-05 
         850      4.87216      0.97825   0.00074047 -1.95301e-05 
         850      4.94003     0.980363  0.000744829 -1.95138e-05 
         850      5.00843     0.982313  0.000748909 -1.94972e-05 
         850      5.07724     0.984105  0.000752711 -1.94804e-05 
         850      5.14658      0.98575  0.000756252 -1.94633e-05 
         850      5.21639     0.987255  0.000759538 -1.94459e-05 
         850      5.28661     0.988626  0.000762576 -1.94282e-05 
         850      5.35736     0.989875  0.000765382   -1.941e-05 
         850      5.42852     0.991007  0.000767962 -1.93914e-05 
         850      5.50021     0.992031  0.000770331 -1.93723e-05 
         850      5.57231     0.992954  0.000772496 -1.93526e-05 
         850      5.64493     0.993785  0.000774472 -1.93322e-05 
         850      5.71803      0.99453  0.000776268 -1.93111e-05 
         850      5.79154     0.995195  0.000777893 -1.92892e-05 
         850      5.86558     0.995788  0.000779362 -1.92665e-05 
         850      5.94003     0.996314  0.000780682 -1.92429e-05 
         850      6.01501     0.996781  0.000781866 -1.92183e-05 
         850       6.0904     0.997192  0.000782923 -1.91927e-05 
         850      6.16632     0.997555  0.000783865 -1.91661e-05 
         850      6.24271     0.997872  0.000784701 -1.91386e-05 
         850       6.3195      0.99815  0.000785439 -1.91101e-05 
         850      6.39683     0.998392  0.000786091 -1.90807e-05 
         850      6.47457     0.998602  0.000786663 -1.90506e-05 
         850      6.55284     0.998784  0.000787165 -1.90198e-05 
         850      6.63152     0.998941  0.000787604 -1.89888e-05 
         850      6.71073     0.999076  0.000787988 -1.89578e-05 
         850      6.79034     0.999192  0.000788322 -1.89271e-05 
         850      6.87049     0.999291  0.000788612 -1.88973e-05 
         850      6.95111     0.999375  0.000788863 -1.88691e-05 
         850      7.03214     0.999446  0.000789078 -1.88431e-05 
         850       7.1137     0.999506  0.000789261 -1.88202e-05 
         850      7.19566     0.999556  0.000789412 -1.88015e-05 
         850      7.27816     0.999599  0.000789534 -1.87882e-05 
         850      7.36106     0.999634  0.000789624 -1.87818e-05 
         850      7.44451     0.999663  0.000789704 -1.87598e-05 
         850      7.52842     0.999687  0.000789788 -1.87116e-05 
         850      7.61273     0.999707  0.000789854 -1.86676e-05 
         850      7.69758     0.999723  0.000789908 -1.86274e-05 
         850      7.78283     0.999736  0.000789953 -1.85907e-05 
         850      7.86862     0.999746  0.000789994 -1.85573e-05 
         850      7.95481     0.999755  0.000790036  -1.8527e-05 
         850      8.04155     0.999762  0.000790083 -1.84997e-05 
         850      8.12868     0.999768  0.000790138 -1.84752e-05 
         850      8.21635     0.999773  0.000790202 -1.84532e-05 
         850      8.30449     0.999777  0.000790268 -1.84331e-05 
         850      8.39303     0.999781  0.000790327 -1.84143e-05 
         850      8.48211     0.999784  0.000790359 -1.83955e-05 
         850      8.57159     0.999786  0.000790333 -1.83752e-05 
         850      8.66161     0.999787  0.000790199 -1.83513e-05 
         850      8.75203     0.999787  0.000789938 -1.83209e-05 
         850      8.84299     0.999789  0.000790214 -1.82839e-05 
         850      8.93443      0.99979  0.000790338 -1.82475e-05 
         850      9.02626     0.999791  0.000790363 -1.82117e-05 
         850      9.11863     0.999792  0.000790331 -1.81764e-05 
         850      9.21139     0.999792  0.000790272 -1.81417e-05 
         850      9.30471     0.999793  0.000790207 -1.81076e-05 
         850      9.39841     0.999793  0.000790153 -1.80742e-05 
         850      9.49267     0.999793  0.000790116 -1.80413e-05 
         850      9.58739     0.999794  0.000790101 -1.80091e-05 
         850      9.68251     0.999794  0.000790109 -1.79777e-05 
         850      9.77817     0.999795  0.000790135 -1.79469e-05 
         850      9.87422     0.999795  0.000790176 -1.79169e-05 
         850      9.97083     0.999796  0.000790226 -1.78874e-05 
         850      10.0678     0.999796  0.000790279 -1.78585e-05 
         850      10.1654     0.999796  0.000790329 -1.78301e-05 
         850      10.2633     0.999797  0.000790371 -1.78019e-05 
         850      10.3618     0.999797  0.000790401 -1.77739e-05 
         850      10.4607     0.999797  0.000790409 -1.77427e-05 
         850      10.5601     0.999798  0.000790378 -1.77008e-05 
         850        10.66     0.999798  0.000790344 -1.76621e-05 
         850      10.7603     0.999799   0.00079031 -1.76259e-05 
         850      10.8611     0.999799  0.000790278 -1.75916e-05 
         850      10.9623     0.999799  0.000790249 -1.75585e-05 
         850      11.0641     0.999799  0.000790226 -1.75262e-05 
         850      11.1663       0.9998  0.000790209 -1.74943e-05 
         850       11.269       0.9998  0.000790199 -1.74626e-05 
         850      11.3721       0.9998  0.000790197 -1.74306e-05 
         850      11.4757       0.9998  0.000790201 -1.73983e-05 
         850      11.5798     0.999801  0.000790212 -1.73655e-05 
         850      11.6844     0.999801  0.000790227 -1.73321e-05 
         850      11.7894     0.999801  0.000790245 -1.72982e-05 
         850       11.895     0.999802  0.000790264 -1.72637e-05 
         850      12.0009     0.999802  0.000790284 -1.72288e-05 
         850      12.1073     0.999802  0.000790302 -1.71934e-05 
         850      12.2142     0.999803  0.000790316 -1.71578e-05 
         850      12.3216     0.999803  0.000790327 -1.71218e-05 
         850      12.4294     0.999804  0.000790334 -1.70858e-05 
         850      12.5378     0.999804  0.000790336 -1.70498e-05 
         850      12.6465     0.999805  0.000790334 -1.70139e-05 
         850      12.7558     0.999805  0.000790329 -1.69781e-05 
         850      12.8656     0.999805  0.000790322 -1.69426e-05 
         850      12.9757     0.999806  0.000790315 -1.69074e-05 
         850      13.0864     0.999806  0.000790311 -1.68724e-05 
         850      13.1975     0.999806   0.00079031 -1.68377e-05 
         850      13.3092     0.999806  0.000790315 -1.68032e-05 
         850      13.4212     0.999807  0.000790327 -1.67688e-05 
         850      13.5338     0.999807  0.000790345 -1.67344e-05 
         850      13.6468     0.999807  0.000790367    -1.67e-05 
         850      13.7603     0.999808   0.00079039 -1.66653e-05 
         850      13.8743     0.999809  0.000790406 -1.66303e-05 
         850      13.9886     0.999809  0.000790405  -1.6595e-05 
         850      14.1036     0.999809  0.000790373 -1.65591e-05 
         850      14.2189      0.99981  0.000790349 -1.65318e-05 
         850      14.3348      0.99981  0.000790335 -1.65062e-05 
         850       14.451      0.99981  0.000790312 -1.64779e-05 
         850      14.5678     0.999811  0.000790286 -1.64475e-05 
         850      14.6851     0.999811  0.000790259 -1.64154e-05 
         850      14.8028     0.999811  0.000790235 -1.63819e-05 
         850       14.921     0.999812  0.000790216 -1.63472e-05 
         850      15.0396     0.999812  0.000790205 -1.63112e-05 
         850      15.1588     0.999813  0.000790203 -1.62741e-05 
         850      15.2783     0.999813  0.000790209 -1.62356e-05 
         850      15.3984     0.999813  0.000790225 -1.61958e-05 
         850       15.519     0.999814  0.000790249 -1.61545e-05 
         850        15.64     0.999814  0.000790279 -1.61118e-05 
         850      15.7615     0.999815  0.000790314 -1.60674e-05 
         850      15.8834     0.999815  0.000790351 -1.60214e-05 
         850      16.0058     0.999815  0.000790389  -1.5974e-05 
         850      16.1286     0.999816  0.000790425 -1.59252e-05 
         850       16.252     0.999816  0.000790457 -1.58754e-05 
         850      16.3759     0.999817  0.000790482 -1.58248e-05 
         850      16.5002     0.999817  0.000790499 -1.57739e-05 
         850       16.625     0.999817  0.000790507 -1.57233e-05 
         850      16.7501     0.999818  0.000790506 -1.56738e-05 
         850      16.8759     0.999818  0.000790496  -1.5626e-05 
         850       17.002     0.999819  0.000790479  -1.5581e-05 
         850      17.1287     0.999819  0.000790457 -1.55397e-05 
         850      17.2557      0.99982  0.000790436 -1.55034e-05 
         850      17.3834      0.99982   0.00079042 -1.54732e-05 
         850      17.5115      0.99982  0.000790416 -1.54506e-05 
         850      17.6399     0.999821  0.000790435 -1.54371e-05 
         850       17.769     0.999821  0.000790488 -1.54342e-05 
         850      17.8984     0.999822  0.000790505 -1.53846e-05 
         850      18.0284     0.999822  0.000790487 -1.53081e-05 
         850      18.1587     0.999822  0.000790476 -1.52425e-05 
         850      18.2896     0.999823   0.00079047 -1.51854e-05 
         850       18.421     0.999823  0.000790466  -1.5135e-05 
         850      18.5528     0.999824  0.000790464 -1.50898e-05 
         850      18.6851     0.999824  0.000790467  -1.5048e-05 
         850      18.8178     0.999825  0.000790474 -1.50085e-05 
         850      18.9511     0.999825  0.000790488 -1.49702e-05 
         850      19.0847     0.999826   0.00079051  -1.4932e-05 
         850      19.2189     0.999826   0.00079054 -1.48931e-05 
         850      19.3535     0.999827  0.000790576 -1.48529e-05 
         850      19.4886     0.999827  0.000790613 -1.48107e-05 
         850      19.6242     0.999828  0.000790646 -1.47663e-05 
         850      19.7602     0.999828  0.000790668 -1.47195e-05 
         850      19.8968     0.999828  0.000790672 -1.46704e-05 
         850      20.0337     0.999829  0.000790653 -1.46194e-05 
         850      20.1712     0.999829  0.000790613  -1.4567e-05 
         850      20.3091     0.999829  0.000790567 -1.45143e-05 
         850      20.4475      0.99983  0.000790547 -1.44625e-05 
         850      20.5864      0.99983  0.000790613 -1.44136e-05 
         850      20.7257     0.999831  0.000790867 -1.43698e-05 
         850      20.8655     0.999832  0.000790965 -1.43187e-05 
         850      21.0058     0.999832    0.0007907 -1.42586e-05 
         850      21.1465     0.999833  0.000790633 -1.42088e-05 
         850      21.2877     0.999833  0.000790675 -1.41664e-05 
         850      21.4294     0.999833  0.000790762 -1.41292e-05 
         850      21.5716     0.999833  0.000790851 -1.40954e-05 
         850      21.7142     0.999834  0.000790916 -1.40639e-05 
         850      21.8573     0.999834  0.000790942 -1.40334e-05 
         850      22.0008     0.999835  0.000790927 -1.40034e-05 
         850      22.1449     0.999835  0.000790874 -1.39729e-05 
         850      22.2893     0.999836  0.000790791 -1.39411e-05 
         850      22.4344     0.999836  0.000790691 -1.39068e-05 
         850      22.5797     0.999837  0.000790587 -1.38687e-05 
         850      22.7257     0.999838  0.000790492 -1.38248e-05 
         850      22.8721     0.999838   0.00079042 -1.37727e-05 
         850      23.0189     0.999839  0.000790381 -1.37094e-05 
         850      23.1663     0.999839  0.000790385 -1.36308e-05 
         850       23.314      0.99984  0.000790438 -1.35323e-05 
         850      23.4623      0.99984  0.000790546 -1.34078e-05 
         850       23.611     0.999841  0.000790521 -1.34183e-05 
         850      23.7602     0.999841  0.000790549 -1.34122e-05 
         850        23.91     0.999841  0.000790609 -1.33908e-05 
         850        24.06     0.999842  0.000790686 -1.33574e-05 
         850      24.2107     0.999842  0.000790767 -1.33146e-05 
         850      24.3617     0.999843   0.00079084 -1.32647e-05 
         850      24.5133     0.999843  0.000790898 -1.32097e-05 
         850      24.6653     0.999844  0.000790938 -1.31513e-05 
         850      24.8178     0.999844  0.000790957 -1.30909e-05 
         850      24.9708     0.999845  0.000790956 -1.30298e-05 
         850      25.1242     0.999845  0.000790935 -1.29688e-05 
         850      25.2781     0.999846  0.000790898 -1.29088e-05 
         850      25.4324     0.999846   0.00079085 -1.28502e-05 
         850      25.5873     0.999847  0.000790796 -1.27935e-05 
         850      25.7426     0.999847  0.000790742  -1.2739e-05 
         850      25.8984     0.999848  0.000790693 -1.26866e-05 
         850      26.0546     0.999848  0.000790655 -1.26366e-05 
         850      26.2114     0.999849  0.000790632 -1.25888e-05 
         850      26.3686     0.999849  0.000790626  -1.2543e-05 
         850      26.5262      0.99985   0.00079064 -1.24989e-05 
         850      26.6844      0.99985  0.000790672 -1.24563e-05 
         850      26.8429     0.999851   0.00079072 -1.24147e-05 
         850       27.002     0.999851  0.000790778 -1.23737e-05 
         850      27.1615     0.999852  0.000790839 -1.23329e-05 
         850      27.3216     0.999852  0.000790895 -1.22918e-05 
         850      27.4821     0.999853  0.000790935 -1.22498e-05 
         850       27.643     0.999853  0.000790951 -1.22065e-05 
         850      27.8044     0.999854  0.000790936 -1.21614e-05 
         850      27.9663     0.999855  0.000790887 -1.21139e-05 
         850      28.1287     0.999855  0.000790809 -1.20636e-05 
         850      28.2914     0.999856  0.000790718 -1.20102e-05 
         850      28.4548     0.999856  0.000790646 -1.19532e-05 
         850      28.6185     0.999857  0.000790648 -1.18926e-05 
         850      28.7828     0.999858  0.000790808  -1.1828e-05 
         850      28.9475     0.999858  0.000791247 -1.17596e-05 
         850      29.1126     0.999858  0.000791045 -1.16945e-05 
         850      29.2784     0.999858   0.00079082 -1.16321e-05 
         850      29.4444     0.999859  0.000790762 -1.15709e-05 
         850       29.611     0.999859  0.000790799 -1.15111e-05 
         850       29.778      0.99986  0.000790881 -1.14526e-05 
         850      29.9456     0.999861  0.000790972 -1.13954e-05 
         850      30.1137     0.999862  0.000791051 -1.13398e-05 
         850      30.2821     0.999862  0.000791105 -1.12858e-05 
         850      30.4511     0.999863  0.000791129 -1.12332e-05 
         850      30.6204     0.999864  0.000791125 -1.11822e-05 
         850      30.7903     0.999864  0.000791097 -1.11326e-05 
         850      30.9606     0.999865  0.000791052 -1.10843e-05 
         850      31.1315     0.999865  0.000790997 -1.10373e-05 
         850      31.3028     0.999866  0.000790941 -1.09913e-05 
         850      31.4745     0.999866   0.00079089  -1.0946e-05 
         850      31.6468     0.999867  0.000790851 -1.09013e-05 
         850      31.8194     0.999867  0.000790827 -1.08568e-05 
         850      31.9926     0.999868  0.000790822 -1.08122e-05 
         850      32.1662     0.999868  0.000790835 -1.07671e-05 
         850      32.3404     0.999869  0.000790866 -1.07212e-05 
         850      32.5149     0.999869  0.000790913 -1.06742e-05 
         850        32.69      0.99987  0.000790971 -1.06255e-05 
         850      32.8655      0.99987  0.000791036  -1.0575e-05 
         850      33.0414     0.999871  0.000791103 -1.05223e-05 
         850       33.218     0.999872  0.000791166 -1.04671e-05 
         850      33.3948     0.999872  0.000791219 -1.04092e-05 
         850      33.5723     0.999873  0.000791259 -1.03485e-05 
         850        33.75     0.999874  0.000791281 -1.02849e-05 
         850      33.9284     0.999874  0.000791283 -1.02183e-05 
         850      34.1073     0.999875  0.000791262 -1.01488e-05 
         850      34.2865     0.999875   0.00079122 -1.00768e-05 
         850      34.4663     0.999876  0.000791158 -1.00023e-05 
         850      34.6465     0.999877  0.000791079 -9.92603e-06 
         850      34.8272     0.999877  0.000790989 -9.84823e-06 
         850      35.0083     0.999878  0.000790892 -9.76972e-06 
         850        35.19     0.999878  0.000790798 -9.69112e-06 
         850      35.3721     0.999879  0.000790713 -9.61335e-06 
         850      35.5546     0.999879  0.000790646 -9.53742e-06 
         850      35.7377      0.99988  0.000790605 -9.46425e-06 
         850      35.9211      0.99988  0.000790598 -9.39504e-06 
         850      36.1052     0.999881  0.000790631 -9.33083e-06 
         850      36.2895     0.999882  0.000790709 -9.27285e-06 
         850      36.4745     0.999882  0.000790836 -9.22213e-06 
         850      36.6598     0.999883  0.000791012 -9.17981e-06 
         850      36.8457     0.999884  0.000791237 -9.14674e-06 
         850      37.0321     0.999885  0.000791507 -9.12371e-06 
         850      37.2188     0.999885  0.000791818 -9.11126e-06 
         850      37.4062     0.999886  0.000792163 -9.10954e-06 
         850      37.5938     0.999887  0.000792039 -8.99328e-06 
         850      37.7821     0.999887  0.000791837 -8.89128e-06 
         850      37.9707     0.999888  0.000791548 -8.80238e-06 
         850      38.1599     0.999889  0.000791181 -8.72359e-06 
         850      38.3496     0.999889  0.000790775  -8.6517e-06 
         850      38.5396      0.99989   0.00079041 -8.58299e-06 
         850      38.7302      0.99989  0.000790221 -8.51287e-06 
         850      38.9211      0.99989  0.000790418 -8.43613e-06 
         850      39.1127      0.99989    0.0007913 -8.34631e-06 
         850      39.3046      0.99989  0.000791898 -8.31009e-06 
         850      39.4971     0.999891  0.000790797 -8.36821e-06 
         850      39.6899     0.999892  0.000790365 -8.36762e-06 
         850      39.8833     0.999893  0.000790374 -8.31659e-06 
         850      40.0772     0.999894   0.00079065 -8.22115e-06 
         850      40.2714     0.999895  0.000791059 -8.08531e-06 
         850      40.4663     0.999895  0.000791505 -7.91063e-06 
         850      40.6615     0.999896  0.000791923 -7.69713e-06 
         850      40.8573     0.999896   0.00079192 -7.57731e-06 
         850      41.0534     0.999897   0.00079161 -7.60777e-06 
         850      41.2501     0.999898  0.000791478 -7.62128e-06 
         850      41.4473     0.999899  0.000791462 -7.61842e-06 
         850      41.6448       0.9999   0.00079151 -7.60025e-06 
         850      41.8429     0.999901  0.000791583 -7.56807e-06 
         850      42.0414     0.999901  0.000791652  -7.5235e-06 
         850      42.2405     0.999902  0.000791698 -7.46817e-06 
         850      42.4399     0.999903  0.000791709 -7.40399e-06 
         850      42.6399     0.999903   0.00079168 -7.33268e-06 
         850      42.8404     0.999903  0.000791611 -7.25608e-06 
         850      43.0412     0.999904  0.000791508 -7.17597e-06 
         850      43.2426     0.999904   0.00079138 -7.09384e-06 
         850      43.4444     0.999905  0.000791235 -7.01126e-06 
         850      43.6467     0.999905  0.000791085 -6.92939e-06 
         850      43.8494     0.999906  0.000790942 -6.84945e-06 
         850      44.0527     0.999907  0.000790816 -6.77219e-06 
         850      44.2563     0.999907  0.000790715  -6.6984e-06 
         850      44.4606     0.999908  0.000790647 -6.62842e-06 
         850      44.6653     0.999909  0.000790616 -6.56257e-06 
         850      44.8704      0.99991  0.000790625 -6.50095e-06 
         850       45.076      0.99991  0.000790671  -6.4433e-06 
         850       45.282     0.999911  0.000790752 -6.38943e-06 
         850      45.4886     0.999912  0.000790862 -6.33881e-06 
         850      45.6955     0.999912  0.000790993 -6.29093e-06 
         850       45.903     0.999913  0.000791135 -6.24506e-06 
         850      46.1111     0.999914  0.000791279 -6.20052e-06 
         850      46.3194     0.999915  0.000791414 -6.15656e-06 
         850      46.5283     0.999915   0.00079153 -6.11237e-06 
         850      46.7376     0.999916   0.00079162 -6.06726e-06 
         850      46.9475     0.999917  0.000791677 -6.02048e-06 
         850      47.1577     0.999917  0.000791698 -5.97153e-06 
         850      47.3685     0.999918  0.000791682 -5.91982e-06 
         850      47.5798     0.999919  0.000791634 -5.86505e-06 
         850      47.7914      0.99992  0.000791561 -5.80706e-06 
         850      48.0037      0.99992  0.000791475 -5.74572e-06 