Variables = x, y, u, v, p

Zone, I=800, F=POINT
           4            0    0.0652989   0.00157055 -0.000389401 
           4     0.000234    0.0653615   0.00156923 -0.000389397 
           4     0.000939    0.0655503   0.00156525 -0.000389385 
           4     0.002113    0.0658655   0.00155862 -0.000389364 
           4     0.003759    0.0663093   0.00154932 -0.000389335 
           4     0.005872    0.0668821   0.00153739 -0.000389298 
           4     0.008457    0.0675874   0.00152279 -0.000389253 
           4      0.01151    0.0684272   0.00150554 -0.000389199 
           4     0.015036    0.0694061   0.00148562 -0.000389137 
           4     0.019031    0.0705269   0.00146306 -0.000389067 
           4     0.023493    0.0717936   0.00143788 -0.000388988 
           4     0.028429    0.0732133   0.00141004   -0.0003889 
           4     0.033831    0.0747892   0.00137962 -0.000388804 
           4     0.039706    0.0765297   0.00134659   -0.0003887 
           4     0.046047    0.0784395   0.00131104 -0.000388587 
           4     0.052863    0.0805289   0.00127296 -0.000388465 
           4      0.06015    0.0828047   0.00123241 -0.000388335 
           4       0.0679    0.0852731   0.00118953 -0.000388198 
           4     0.076126    0.0879475   0.00114433 -0.000388052 
           4     0.084816    0.0908341   0.00109696 -0.000387899 
           4     0.093982    0.0939472    0.0010475 -0.000387739 
           4     0.103611    0.0972935  0.000996169 -0.000387571 
           4     0.113718      0.10089  0.000943049 -0.000387398 
           4     0.124286     0.104742   0.00088843 -0.000387219 
           4     0.135333     0.108869  0.000832442 -0.000387036 
           4      0.14685      0.11328  0.000775387 -0.000386849 
           4     0.158827     0.117984  0.000717599 -0.000386659 
           4     0.171284     0.123001  0.000659295 -0.000386467 
           4     0.184201     0.128337  0.000600906 -0.000386274 
           4     0.197599     0.134011  0.000542697 -0.000386082 
           4     0.211455     0.140026  0.000485154 -0.000385892 
           4     0.225792     0.146402  0.000428587 -0.000385704 
           4       0.2406     0.153145  0.000373451 -0.000385522 
           4     0.255865     0.160256  0.000320207 -0.000385345 
           4     0.271613     0.167755  0.000269187  -0.00038517 
           4     0.287818     0.175632  0.000220788  -0.00038501 
           4     0.304506     0.183904  0.000175331 -0.000384865 
           4      0.32165     0.192558  0.000133219 -0.000384733 
           4     0.339278     0.201607  9.46424e-05 -0.000384615 
           4     0.357377     0.211039  5.98121e-05 -0.000384508 
           4      0.37593     0.220839  2.88497e-05 -0.000384412 
           4     0.394968     0.231012  1.71477e-06 -0.000384325 
           4     0.414461     0.241533 -2.16184e-05 -0.000384247 
           4      0.43444     0.252404 -4.13302e-05 -0.000384176 
           4     0.454872     0.263593 -5.75976e-05 -0.000384111 
           4     0.475791     0.275105 -7.07135e-05 -0.000384051 
           4     0.497163     0.286905 -8.09642e-05 -0.000383995 
           4     0.519021     0.298995 -8.87023e-05  -0.00038394 
           4      0.54135     0.311354 -9.42692e-05 -0.000383887 
           4     0.564131     0.323956 -9.80106e-05 -0.000383834 
           4       0.5874     0.336807 -0.000100265 -0.000383779 
           4     0.611121     0.349875 -0.000101188 -0.000383713 
           4      0.63533     0.363169 -0.000101105 -0.000383642 
           4      0.65999     0.376656 -0.000100189 -0.000383566 
           4     0.685139     0.390349 -9.85605e-05 -0.000383481 
           4     0.710759     0.404226 -9.62937e-05 -0.000383387 
           4     0.736828     0.418268 -9.34263e-05 -0.000383282 
           4     0.763387     0.432484 -8.99591e-05 -0.000383164 
           4     0.790396     0.446844  -8.5884e-05 -0.000383032 
           4     0.817896     0.461359 -8.11755e-05 -0.000382885 
           4     0.845843     0.475992 -7.58266e-05 -0.000382721 
           4     0.874283     0.490755 -6.98257e-05 -0.000382539 
           4      0.90317     0.505611 -6.31911e-05 -0.000382339 
           4     0.932551     0.520568 -5.59218e-05 -0.000382119 
           4     0.962401       0.5356 -4.80081e-05  -0.00038188 
           4     0.992697     0.550679 -3.93715e-05 -0.000381622 
           4      1.02349     0.565811 -3.00862e-05 -0.000381331 
           4      1.05472     0.580954 -2.00982e-05 -0.000381014 
           4      1.08645     0.596114 -9.39432e-06  -0.00038067 
           4      1.11863     0.611245  1.99478e-06 -0.000380297 
           4       1.1513     0.626353  1.40756e-05 -0.000379894 
           4      1.18444     0.641404  2.68267e-05 -0.000379457 
           4      1.21802     0.656363  4.02226e-05 -0.000378986 
           4      1.25211     0.671233  5.42682e-05 -0.000378478 
           4      1.28663     0.685965  6.89191e-05 -0.000377932 
           4      1.32165     0.700561  8.41761e-05 -0.000377345 
           4      1.35712     0.714974  9.99868e-05  -0.00037672 
           4      1.39308     0.729201  0.000116348 -0.000376058 
           4      1.42951     0.743209  0.000133211 -0.000375359 
           4      1.46638     0.756962  0.000150483 -0.000374606 
           4      1.50375     0.770459  0.000168176 -0.000373805 
           4      1.54156     0.783655  0.000186206 -0.000372955 
           4      1.57987     0.796548  0.000204545 -0.000372055 
           4      1.61863     0.809098  0.000223106 -0.000371104 
           4      1.65788     0.821303  0.000241859 -0.000370102 
           4      1.69757     0.833124  0.000260711 -0.000369048 
           4      1.73776     0.844562   0.00027963 -0.000367941 
           4      1.77842     0.855591  0.000298538  -0.00036678 
           4      1.81952     0.866189  0.000317351 -0.000365567 
           4      1.86113     0.876358  0.000336035   -0.0003643 
           4      1.90316     0.886074  0.000354491 -0.000362978 
           4      1.94571     0.895341  0.000372684 -0.000361602 
           4      1.98869     0.904139  0.000390522 -0.000360171 
           4      2.03217     0.912479  0.000407984 -0.000358684 
           4      2.07612      0.92035  0.000424993 -0.000357147 
           4      2.12051     0.927748  0.000441475  -0.00035556 
           4       2.1654     0.934688  0.000457424 -0.000353919 
           4      2.21073     0.941164  0.000472768 -0.000352229 
           4      2.25656     0.947194  0.000487495 -0.000350486 
           4      2.30283     0.952778  0.000501549 -0.000348696 
           4       2.3496     0.957936  0.000514928 -0.000346856 
           4      2.39685     0.962678  0.000527605  -0.00034497 
           4      2.44452     0.967016  0.000539557 -0.000343039 
           4      2.49271     0.970973    0.0005508 -0.000341062 
           4      2.54132     0.974562  0.000561316 -0.000339043 
           4      2.59044     0.977806  0.000571129 -0.000336982 
           4         2.64     0.980721  0.000580235 -0.000334882 
           4      2.69006     0.983332  0.000588665 -0.000332742 
           4      2.74056     0.985656  0.000596428 -0.000330565 
           4      2.79156     0.987717  0.000603563  -0.00032835 
           4      2.84304     0.989535  0.000610097 -0.000326098 
           4      2.89494     0.991128  0.000616061  -0.00032381 
           4      2.94735     0.992519  0.000621506 -0.000321481 
           4       3.0002     0.993726   0.00062647 -0.000319115 
           4      3.05355     0.994768  0.000630997 -0.000316708 
           4      3.10733     0.995662  0.000635088 -0.000314284 
           4      3.16163     0.996425  0.000638823 -0.000311835 
           4      3.21639     0.997073  0.000642227 -0.000309364 
           4      3.27158     0.997618   0.00064532 -0.000306869 
           4      3.32729     0.998075  0.000648159 -0.000304341 
           4      3.38342     0.998455  0.000650784 -0.000301789 
           4      3.44007     0.998769  0.000653199 -0.000299217 
           4      3.49714     0.999027  0.000655452 -0.000296617 
           4      3.55472     0.999238  0.000657576 -0.000293989 
           4      3.61273     0.999409  0.000659595 -0.000291338 
           4      3.67125     0.999546  0.000661534 -0.000288663 
           4      3.73025     0.999655   0.00066341 -0.000285967 
           4      3.78967     0.999742  0.000665237 -0.000283253 
           4      3.84961     0.999809  0.000667033 -0.000280517 
           4      3.90996     0.999862  0.000668806 -0.000277765 
           4      3.97084     0.999902  0.000670574 -0.000274992 
           4      4.03214     0.999933  0.000672344 -0.000272202 
           4      4.09395     0.999956  0.000674129 -0.000269393 
           4      4.15624     0.999972  0.000675936 -0.000266566 
           4      4.21895     0.999984  0.000677767 -0.000263726 
           4      4.28217     0.999993  0.000679624 -0.000260869 
           4      4.34582     0.999998  0.000681507 -0.000257998 
           4      4.40998            1  0.000683428 -0.000255111 
           4      4.47457            1  0.000685399 -0.000252212 
           4      4.53968            1  0.000687392 -0.000249299 
           4      4.60525            1   0.00068943 -0.000246373 
           4      4.67125            1  0.000691512 -0.000243438 
           4      4.73777            1  0.000693636  -0.00024049 
           4       4.8047     0.999998  0.000695796 -0.000237535 
           4      4.87216     0.999996  0.000697995 -0.000234568 
           4      4.94003     0.999994  0.000700229 -0.000231595 
           4      5.00843     0.999991  0.000702504 -0.000228611 
           4      5.07724     0.999989  0.000704818 -0.000225622 
           4      5.14658     0.999986  0.000707177 -0.000222622 
           4      5.21639     0.999983  0.000709579 -0.000219616 
           4      5.28661     0.999981  0.000712021 -0.000216606 
           4      5.35736     0.999978  0.000714502  -0.00021359 
           4      5.42852     0.999975  0.000717015 -0.000210574 
           4      5.50021     0.999972  0.000719559 -0.000207556 
           4      5.57231      0.99997  0.000722137 -0.000204528 
           4      5.64493     0.999967  0.000724751 -0.000201502 
           4      5.71803     0.999964  0.000727406 -0.000198478 
           4      5.79154     0.999961  0.000730098 -0.000195458 
           4      5.86558     0.999959  0.000732824 -0.000192435 
           4      5.94003     0.999956  0.000735579 -0.000189414 
           4      6.01501     0.999953   0.00073837  -0.00018639 
           4       6.0904      0.99995  0.000741192 -0.000183368 
           4      6.16632     0.999948  0.000744054 -0.000180341 
           4      6.24271     0.999945  0.000746944 -0.000177318 
           4       6.3195     0.999942  0.000749854 -0.000174305 
           4      6.39683     0.999939  0.000752792   -0.0001713 
           4      6.47457     0.999937   0.00075577 -0.000168301 
           4      6.55284     0.999934  0.000758774 -0.000165309 
           4      6.63152     0.999931  0.000761803 -0.000162328 
           4      6.71073     0.999929  0.000764863 -0.000159352 
           4      6.79034     0.999926  0.000767949 -0.000156387 
           4      6.87049     0.999923  0.000771065 -0.000153428 
           4      6.95111     0.999921  0.000774208  -0.00015048 
           4      7.03214     0.999918  0.000777374 -0.000147545 
           4       7.1137     0.999915  0.000780567 -0.000144619 
           4      7.19566     0.999913  0.000783782 -0.000141708 
           4      7.27816      0.99991  0.000787022 -0.000138808 
           4      7.36106     0.999908  0.000790283 -0.000135923 
           4      7.44451     0.999905  0.000793568 -0.000133049 
           4      7.52842     0.999902  0.000796876 -0.000130191 
           4      7.61273       0.9999  0.000800205 -0.000127349 
           4      7.69758     0.999897   0.00080356 -0.000124522 
           4      7.78283     0.999895  0.000806932 -0.000121712 
           4      7.86862     0.999892  0.000810321 -0.000118918 
           4      7.95481      0.99989  0.000813728 -0.000116145 
           4      8.04155     0.999887  0.000817154 -0.000113386 
           4      8.12868     0.999885  0.000820596 -0.000110647 
           4      8.21635     0.999883  0.000824058 -0.000107926 
           4      8.30449      0.99988  0.000827538 -0.000105224 
           4      8.39303     0.999878  0.000831034 -0.000102545 
           4      8.48211     0.999875  0.000834549  -9.9886e-05 
           4      8.57159     0.999873  0.000838078 -9.72508e-05 
           4      8.66161     0.999871  0.000841626 -9.46358e-05 
           4      8.75203     0.999869  0.000845185 -9.20457e-05 
           4      8.84299     0.999866  0.000848758 -8.94763e-05 
           4      8.93443     0.999864  0.000852341 -8.69298e-05 
           4      9.02626     0.999862  0.000855927 -8.44081e-05 
           4      9.11863      0.99986  0.000859524 -8.19068e-05 
           4      9.21139     0.999858  0.000863125 -7.94298e-05 
           4      9.30471     0.999855  0.000866743 -7.69727e-05 
           4      9.39841     0.999853  0.000870378 -7.45394e-05 
           4      9.49267     0.999851  0.000874049 -7.21261e-05 
           4      9.58739     0.999849  0.000877731 -6.97449e-05 
           4      9.68251     0.999847  0.000881361 -6.74133e-05 
           4      9.77817     0.999845  0.000885015 -6.51014e-05 
           4      9.87422     0.999843  0.000888696 -6.28062e-05 
           4      9.97083     0.999841  0.000892408 -6.05152e-05 
           4      10.0678     0.999839  0.000896077 -5.82662e-05 
           4      10.1654     0.999838  0.000899755 -5.60402e-05 
           4      10.2633     0.999836  0.000903428 -5.38418e-05 
           4      10.3618     0.999834  0.000907141 -5.16818e-05 
           4      10.4607     0.999832  0.000910866 -4.95585e-05 
           4      10.5601      0.99983  0.000914552 -4.74552e-05 
           4        10.66     0.999829  0.000918237 -4.53732e-05 
           4      10.7603     0.999827  0.000921931 -4.33183e-05 
           4      10.8611     0.999825  0.000925646  -4.1289e-05 
           4      10.9623     0.999824  0.000929369 -3.92894e-05 
           4      11.0641     0.999822  0.000933097 -3.73169e-05 
           4      11.1663      0.99982  0.000936817 -3.53738e-05 
           4       11.269     0.999819  0.000940519  -3.3462e-05 
           4      11.3721     0.999817   0.00094421 -3.15787e-05 
           4      11.4757     0.999816  0.000947888 -2.97268e-05 
           4      11.5798     0.999814   0.00095157 -2.79029e-05 
           4      11.6844     0.999813  0.000955259  -2.6109e-05 
           4      11.7894     0.999812  0.000958965 -2.43408e-05 
           4       11.895      0.99981  0.000962679 -2.25981e-05 
           4      12.0009     0.999809  0.000966383 -2.08806e-05 
           4      12.1073     0.999808  0.000970063 -1.91852e-05 
           4      12.2142     0.999806  0.000973702 -1.75163e-05 
           4      12.3216     0.999805  0.000977334  -1.5877e-05 
           4      12.4294     0.999804  0.000981076 -1.42818e-05 
           4      12.5378     0.999803  0.000984649  -1.2698e-05 
           4      12.6465     0.999802  0.000988303 -1.11482e-05 
           4      12.7558       0.9998  0.000991974 -9.62809e-06 
           4      12.8656     0.999799  0.000995616 -8.13647e-06 
           4      12.9757     0.999798  0.000999218 -6.67308e-06 
           4      13.0864     0.999797    0.0010028 -5.23482e-06 
           4      13.1975     0.999796   0.00100636 -3.82361e-06 
           4      13.3092     0.999795   0.00100993 -2.43703e-06 
           4      13.4212     0.999794   0.00101351 -1.07733e-06 
           4      13.5338     0.999793    0.0010171  2.57397e-07 
           4      13.6468     0.999792   0.00102069  1.56527e-06 
           4      13.7603     0.999792   0.00102426   2.8437e-06 
           4      13.8743     0.999791   0.00102779  4.09193e-06 
           4      13.9886      0.99979   0.00103129  5.32349e-06 
           4      14.1036     0.999789   0.00103479   6.5385e-06 
           4      14.2189     0.999788   0.00103825  7.72077e-06 
           4      14.3348     0.999787   0.00104171  8.87417e-06 
           4       14.451     0.999787   0.00104517  9.99894e-06 
           4      14.5678     0.999786   0.00104863  1.10991e-05 
           4      14.6851     0.999785   0.00105209  1.21764e-05 
           4      14.8028     0.999785   0.00105554  1.32321e-05 
           4       14.921     0.999784   0.00105896  1.42697e-05 
           4      15.0396     0.999784   0.00106233  1.52876e-05 
           4      15.1588     0.999783   0.00106567  1.62848e-05 
           4      15.2783     0.999782     0.001069  1.72527e-05 
           4      15.3984     0.999782   0.00107243  1.81793e-05 
           4       15.519     0.999782   0.00107572  1.90928e-05 
           4        15.64     0.999781     0.001079  1.99813e-05 
           4      15.7615     0.999781   0.00108234  2.08426e-05 
           4      15.8834      0.99978   0.00108565   2.1688e-05 
           4      16.0058      0.99978   0.00108891  2.25239e-05 
           4      16.1286     0.999779   0.00109213  2.33486e-05 
           4       16.252     0.999779   0.00109533  2.41598e-05 
           4      16.3759     0.999779   0.00109854  2.49514e-05 
           4      16.5002     0.999778   0.00110175  2.57172e-05 
           4       16.625     0.999778   0.00110497  2.64543e-05 
           4      16.7501     0.999778   0.00110817  2.71598e-05 
           4      16.8759     0.999778   0.00111134  2.78357e-05 
           4       17.002     0.999777   0.00111447  2.84851e-05 
           4      17.1287     0.999777   0.00111754  2.91158e-05 
           4      17.2557     0.999777   0.00112058  2.97353e-05 
           4      17.3834     0.999777   0.00112359  3.03528e-05 
           4      17.5115     0.999777    0.0011266  3.09735e-05 
           4      17.6399     0.999777   0.00112964  3.15964e-05 
           4       17.769     0.999777   0.00113272  3.22112e-05 
           4      17.8984     0.999776    0.0011358  3.27894e-05 
           4      18.0284     0.999776   0.00113878   3.3281e-05 
           4      18.1587     0.999777   0.00114153  3.36453e-05 
           4      18.2896     0.999776   0.00114471  3.43049e-05 
           4       18.421     0.999776   0.00114771  3.48522e-05 
           4      18.5528     0.999776   0.00115058  3.53272e-05 
           4      18.6851     0.999776   0.00115338  3.57556e-05 
           4      18.8178     0.999776   0.00115615  3.61463e-05 
           4      18.9511     0.999777   0.00115898  3.64918e-05 
           4      19.0847     0.999777   0.00116178  3.68749e-05 
           4      19.2189     0.999777   0.00116457  3.73211e-05 
           4      19.3535     0.999777   0.00116745  3.77096e-05 
           4      19.4886     0.999777   0.00117031  3.80651e-05 
           4      19.6242     0.999777   0.00117311  3.84021e-05 
           4      19.7602     0.999777   0.00117583  3.87291e-05 
           4      19.8968     0.999777    0.0011785  3.90503e-05 
           4      20.0337     0.999777   0.00118113  3.93659e-05 
           4      20.1712     0.999777   0.00118375  3.96752e-05 
           4      20.3091     0.999778   0.00118637  3.99757e-05 
           4      20.4475     0.999778     0.001189  4.02658e-05 
           4      20.5864     0.999778   0.00119163  4.05436e-05 
           4      20.7257     0.999778   0.00119426  4.08076e-05 
           4      20.8655     0.999779   0.00119688  4.10582e-05 
           4      21.0058     0.999779   0.00119947  4.12951e-05 
           4      21.1465     0.999779   0.00120202  4.15197e-05 
           4      21.2877      0.99978   0.00120453  4.17326e-05 
           4      21.4294      0.99978     0.001207  4.19348e-05 
           4      21.5716      0.99978   0.00120944  4.21264e-05 
           4      21.7142      0.99978   0.00121186  4.23066e-05 
           4      21.8573     0.999781    0.0012143   4.2474e-05 
           4      22.0008     0.999781   0.00121677  4.26253e-05 
           4      22.1449     0.999781    0.0012193  4.27571e-05 
           4      22.2893     0.999782   0.00122177  4.29043e-05 
           4      22.4344     0.999782   0.00122419   4.3072e-05 
           4      22.5797     0.999782    0.0012265  4.32354e-05 
           4      22.7257     0.999782   0.00122846  4.33808e-05 
           4      22.8721     0.999784   0.00123089  4.33497e-05 
           4      23.0189     0.999784   0.00123328  4.34775e-05 
           4      23.1663     0.999785   0.00123558  4.36766e-05 
           4       23.314     0.999785   0.00123784  4.38133e-05 
           4      23.4623     0.999785   0.00124009  4.39086e-05 
           4       23.611     0.999786   0.00124234  4.39785e-05 
           4      23.7602     0.999786   0.00124456   4.4035e-05 
           4        23.91     0.999787   0.00124675  4.40863e-05 
           4        24.06     0.999787   0.00124891  4.41369e-05 
           4      24.2107     0.999788   0.00125103   4.4189e-05 
           4      24.3617     0.999788   0.00125314  4.42423e-05 
           4      24.5133     0.999788   0.00125523  4.42952e-05 
           4      24.6653     0.999789   0.00125732  4.43451e-05 
           4      24.8178     0.999789   0.00125942  4.43893e-05 
           4      24.9708      0.99979   0.00126151  4.44252e-05 
           4      25.1242      0.99979   0.00126359   4.4451e-05 
           4      25.2781     0.999791   0.00126564  4.44663e-05 
           4      25.4324     0.999792   0.00126766  4.44717e-05 
           4      25.5873     0.999793   0.00126964  4.44692e-05 
           4      25.7426     0.999793   0.00127159  4.44619e-05 
           4      25.8984     0.999793   0.00127355  4.44536e-05 
           4      26.0546     0.999794   0.00127552  4.44477e-05 
           4      26.2114     0.999794   0.00127749  4.44463e-05 
           4      26.3686     0.999794   0.00127938  4.44482e-05 
           4      26.5262     0.999796   0.00128133  4.44451e-05 
           4      26.6844     0.999796   0.00128325  4.44344e-05 
           4      26.8429     0.999797   0.00128513  4.44179e-05 
           4       27.002     0.999797   0.00128698  4.43966e-05 
           4      27.1615     0.999798    0.0012888  4.43715e-05 
           4      27.3216     0.999798   0.00129061  4.43427e-05 
           4      27.4821     0.999799   0.00129241  4.43106e-05 
           4       27.643       0.9998    0.0012942   4.4275e-05 
           4      27.8044       0.9998   0.00129597  4.42361e-05 
           4      27.9663     0.999801   0.00129773  4.41937e-05 
           4      28.1287     0.999802   0.00129947  4.41479e-05 
           4      28.2914     0.999803    0.0013012  4.40988e-05 
           4      28.4548     0.999803   0.00130291  4.40466e-05 
           4      28.6185     0.999804   0.00130461  4.39915e-05 
           4      28.7828     0.999804   0.00130629  4.39337e-05 
           4      28.9475     0.999805   0.00130796  4.38738e-05 
           4      29.1126     0.999805   0.00130962  4.38121e-05 
           4      29.2784     0.999806   0.00131127  4.37489e-05 
           4      29.4444     0.999807    0.0013129  4.36845e-05 
           4       29.611     0.999807   0.00131452  4.36188e-05 
           4       29.778     0.999808   0.00131612  4.35517e-05 
           4      29.9456     0.999809   0.00131769  4.34823e-05 
           4      30.1137      0.99981   0.00131922  4.34098e-05 
           4      30.2821      0.99981   0.00132071  4.33323e-05 
           4      30.4511     0.999811   0.00132231  4.32733e-05 
           4      30.6204     0.999812   0.00132391  4.32152e-05 
           4      30.7903     0.999813   0.00132548  4.31526e-05 
           4      30.9606     0.999813   0.00132702  4.30865e-05 
           4      31.1315     0.999814   0.00132851  4.30178e-05 
           4      31.3028     0.999814   0.00132997  4.29478e-05 
           4      31.4745     0.999815    0.0013314  4.28777e-05 
           4      31.6468     0.999815   0.00133279  4.28086e-05 
           4      31.8194     0.999815   0.00133417  4.27414e-05 
           4      31.9926     0.999816   0.00133555  4.26765e-05 
           4      32.1662     0.999816   0.00133695  4.26143e-05 
           4      32.3404     0.999817   0.00133838  4.25543e-05 
           4      32.5149     0.999818   0.00133986  4.24955e-05 
           4        32.69      0.99982   0.00134138  4.24362e-05 
           4      32.8655     0.999821   0.00134289  4.23741e-05 
           4      33.0414     0.999822   0.00134431  4.23059e-05 
           4       33.218     0.999823    0.0013455  4.22274e-05 
           4      33.3948     0.999822   0.00134621   4.2134e-05 
           4      33.5723     0.999822   0.00134817   4.2122e-05 
           4        33.75     0.999823   0.00134964  4.20971e-05 
           4      33.9284     0.999824   0.00135086  4.20614e-05 
           4      34.1073     0.999825     0.001352  4.20167e-05 
           4      34.2865     0.999826   0.00135313  4.19645e-05 
           4      34.4663     0.999827    0.0013543  4.19055e-05 
           4      34.6465     0.999828   0.00135553  4.18401e-05 
           4      34.8272     0.999829    0.0013568  4.17687e-05 
           4      35.0083     0.999829   0.00135808  4.16917e-05 
           4        35.19      0.99983   0.00135937  4.16094e-05 
           4      35.3721     0.999831   0.00136064   4.1523e-05 
           4      35.5546     0.999831   0.00136187  4.14342e-05 
           4      35.7377     0.999832   0.00136305  4.13453e-05 
           4      35.9211     0.999833    0.0013642    4.126e-05 
           4      36.1052     0.999834   0.00136532  4.11833e-05 
           4      36.2895     0.999834   0.00136642  4.11218e-05 
           4      36.4745     0.999835   0.00136753  4.10836e-05 
           4      36.6598     0.999836   0.00136867  4.10795e-05 
           4      36.8457     0.999836   0.00136987   4.1122e-05 
           4      37.0321     0.999837   0.00137116  4.12265e-05 
           4      37.2188     0.999837   0.00137253  4.13767e-05 
           4      37.4062     0.999838   0.00137346  4.11489e-05 
           4      37.5938     0.999839   0.00137442   4.0977e-05 
           4      37.7821      0.99984    0.0013754  4.08516e-05 
           4      37.9707      0.99984   0.00137641  4.07649e-05 
           4      38.1599     0.999841   0.00137744  4.07095e-05 
           4      38.3496     0.999842   0.00137848  4.06789e-05 
           4      38.5396     0.999842   0.00137954  4.06673e-05 
           4      38.7302     0.999843   0.00138059  4.06695e-05 
           4      38.9211     0.999843   0.00138164  4.06808e-05 
           4      39.1127     0.999844   0.00138268  4.06969e-05 
           4      39.3046     0.999845   0.00138371  4.07144e-05 
           4      39.4971     0.999845   0.00138473  4.07304e-05 
           4      39.6899     0.999846   0.00138573  4.07425e-05 
           4      39.8833     0.999847   0.00138672  4.07497e-05 
           4      40.0772     0.999848   0.00138769  4.07517e-05 
           4      40.2714     0.999849   0.00138864  4.07499e-05 
           4      40.4663      0.99985   0.00138958  4.07474e-05 
           4      40.6615     0.999851   0.00139048  4.07494e-05 
           4      40.8573     0.999851    0.0013913  4.07641e-05 
           4      41.0534      0.99985   0.00139199  4.08029e-05 
           4      41.2501     0.999852    0.0013931  4.07417e-05 
           4      41.4473     0.999854   0.00139412  4.06852e-05 
           4      41.6448     0.999855   0.00139499  4.06551e-05 
           4      41.8429     0.999855   0.00139579  4.06437e-05 
           4      42.0414     0.999855   0.00139659  4.06454e-05 
           4      42.2405     0.999855   0.00139741  4.06563e-05 
           4      42.4399     0.999856   0.00139825  4.06736e-05 
           4      42.6399     0.999856   0.00139913  4.06956e-05 
           4      42.8404     0.999857   0.00140003  4.07214e-05 
           4      43.0412     0.999858   0.00140094  4.07505e-05 
           4      43.2426     0.999858   0.00140185  4.07829e-05 
           4      43.4444     0.999859   0.00140274  4.08184e-05 
           4      43.6467      0.99986   0.00140361  4.08572e-05 
           4      43.8494     0.999861   0.00140446   4.0899e-05 
           4      44.0527     0.999862   0.00140527  4.09434e-05 
           4      44.2563     0.999863   0.00140606  4.09896e-05 
           4      44.4606     0.999864   0.00140682  4.10364e-05 
           4      44.6653     0.999864   0.00140756  4.10822e-05 
           4      44.8704     0.999865    0.0014083  4.11246e-05 
           4       45.076     0.999865   0.00140904   4.1161e-05 
           4       45.282     0.999866    0.0014098  4.11881e-05 
           4      45.4886     0.999866   0.00141058  4.12023e-05 
           4      45.6955     0.999866   0.00141141  4.11992e-05 
           4       45.903     0.999866    0.0014123  4.11742e-05 
           4      46.1111     0.999867   0.00141301  4.12892e-05 
           4      46.3194     0.999869   0.00141369   4.1411e-05 
           4      46.5283      0.99987   0.00141439  4.15116e-05 
           4      46.7376     0.999871   0.00141511  4.15961e-05 
           4      46.9475     0.999872   0.00141583  4.16694e-05 
           4      47.1577     0.999873   0.00141656  4.17356e-05 
           4      47.3685     0.999874   0.00141728  4.17982e-05 
           4      47.5798     0.999874   0.00141799  4.18602e-05 
           4      47.7914     0.999875   0.00141868  4.19237e-05 
           4      48.0037     0.999875   0.00141935  4.19903e-05 