Variables = x, y, u, v, p

Zone, I=416, F=POINT
         -50            0            0            0     -7.96967 
         -50     0.013333  5.33885e-05  3.59096e-09     -7.96967 
         -50     0.053333  4.69765e-05 -1.09655e-07     -7.96967 
         -50         0.12  5.80359e-05 -5.72196e-07     -7.96967 
         -50     0.213332  7.02777e-05 -1.45705e-06     -7.96967 
         -50     0.333332  7.72585e-05 -2.83139e-06     -7.96966 
         -50         0.48  7.77626e-05 -3.69688e-06     -7.96964 
         -50     0.653331  7.36677e-05  -5.0902e-06     -7.96961 
         -50     0.853332  6.64266e-05 -5.97697e-06     -7.96957 
         -50         1.08  5.70271e-05 -6.83605e-06     -7.96951 
         -50      1.33333  4.53139e-05 -6.91666e-06     -7.96943 
         -50      1.61333  3.56379e-05  -6.7135e-06     -7.96932 
         -50         1.92  3.25379e-05 -5.43877e-06     -7.96918 
         -50      2.25333  3.63341e-05 -3.27915e-06       -7.969 
         -50      2.61333  4.32144e-05  1.23176e-06     -7.96877 
         -50            3  4.70884e-05  7.55751e-06     -7.96849 
         -25            0  5.25418e-20  3.43964e-25     -7.65234 
         -25     0.013333  4.01252e-05 -1.01589e-09     -7.65234 
         -25     0.053333  3.72233e-05 -2.80973e-08     -7.65234 
         -25         0.12  4.51393e-05  -1.2514e-07     -7.65234 
         -25     0.213332  5.24549e-05  -2.5992e-07     -7.65233 
         -25     0.333332  5.66664e-05  -3.2109e-07     -7.65233 
         -25         0.48   5.7804e-05 -3.86509e-07     -7.65232 
         -25     0.653331  5.62887e-05 -3.23495e-07     -7.65231 
         -25     0.853332  5.17624e-05 -1.63997e-07      -7.6523 
         -25         1.08  4.47963e-05 -1.23133e-07     -7.65228 
         -25      1.33333  3.67251e-05 -1.45007e-08     -7.65224 
         -25      1.61333  2.81048e-05  1.93287e-07      -7.6522 
         -25         1.92  1.94513e-05  6.28364e-08     -7.65215 
         -25      2.25333  1.72255e-05  1.29511e-06     -7.65208 
         -25      2.61333   2.1818e-05  3.32077e-06     -7.65199 
         -25            3  2.49654e-05  2.26445e-06     -7.65188 
           0            0  1.27255e-19 -1.86891e-19     -7.39545 
           0     0.013333  9.90811e-05 -5.85544e-05      -7.3955 
           0     0.053333   3.7464e-05 -2.43986e-05     -7.39591 
           0         0.12  2.58314e-05 -1.27547e-05     -7.39635 
           0     0.213332  2.60481e-05 -1.00604e-05     -7.39681 
           0     0.333332   2.9542e-05 -9.81119e-06     -7.39726 
           0         0.48  2.95549e-05 -1.04471e-05     -7.39771 
           0     0.653331  2.48728e-05 -1.18542e-05     -7.39814 
           0     0.853332  1.83927e-05 -1.36671e-05     -7.39855 
           0         1.08  1.42045e-05 -1.55291e-05     -7.39895 
           0      1.33333  1.28416e-05 -1.71704e-05     -7.39932 
           0      1.61333  1.25761e-05 -1.82976e-05     -7.39967 
           0         1.92  1.50988e-05  -1.8517e-05     -7.39999 
           0      2.25333  2.37388e-05 -1.74906e-05     -7.40028 
           0      2.61333  3.33129e-05 -1.60049e-05     -7.40055 
           0            3  3.56742e-05  -1.5854e-05     -7.40079 
          20            0           -0           -0      -7.2328 
          20     0.013333  3.47499e-05 -7.06683e-08      -7.2328 
          20     0.053333  5.65518e-05 -1.05455e-06      -7.2328 
          20         0.12  0.000125323 -4.58036e-06      -7.2328 
          20     0.213332  0.000210435  -1.1624e-05      -7.2328 
          20     0.333332  0.000266688 -2.18502e-05      -7.2328 
          20         0.48  0.000287216 -3.36692e-05     -7.23279 
          20     0.653331  0.000303334 -4.43743e-05     -7.23278 
          20     0.853332  0.000294416 -5.37872e-05     -7.23276 
          20         1.08  0.000244185 -6.29608e-05     -7.23274 
          20      1.33333  0.000179713 -7.04966e-05     -7.23271 
          20      1.61333  0.000111263 -7.50544e-05     -7.23267 
          20         1.92  4.45757e-05 -7.59458e-05     -7.23263 
          20      2.25333 -9.94216e-06 -7.32249e-05     -7.23257 
          20      2.61333 -4.39917e-05 -6.75799e-05     -7.23249 
          20            3  -6.1139e-05 -6.18062e-05     -7.23241 
          40            0           -0           -0       -7.068 
          40     0.013333   1.3812e-05 -8.68281e-08       -7.068 
          40     0.053333 -6.26618e-06 -1.30067e-06       -7.068 
          40         0.12  2.61157e-05 -5.78046e-06       -7.068 
          40     0.213332  0.000106184 -1.50132e-05       -7.068 
          40     0.333332  0.000190249 -2.86546e-05       -7.068 
          40         0.48  0.000239577  -4.5532e-05       -7.068 
          40     0.653331  0.000241626 -6.50529e-05     -7.06799 
          40     0.853332  0.000206882 -8.65748e-05     -7.06799 
          40         1.08  0.000160469 -0.000108147     -7.06799 
          40      1.33333   0.00011903 -0.000127113     -7.06798 
          40      1.61333  8.21388e-05 -0.000141132     -7.06797 
          40         1.92  3.80349e-05 -0.000148002     -7.06797 
          40      2.25333  7.79758e-06 -0.000147706     -7.06795 
          40      2.61333 -1.10054e-05 -0.000141232     -7.06794 
          40            3 -2.50018e-05  -0.00012936     -7.06792 
          60            0           -0           -0     -6.91227 
          60     0.013333   1.4452e-05 -4.07301e-08     -6.91227 
          60     0.053333 -1.40883e-05 -6.03905e-07     -6.91227 
          60         0.12 -2.26279e-05 -2.64555e-06     -6.91227 
          60     0.213332 -1.20741e-05 -6.78808e-06     -6.91227 
          60     0.333332  3.22398e-06 -1.29088e-05     -6.91227 
          60         0.48  9.73743e-06 -2.06774e-05     -6.91227 
          60     0.653331   -2.499e-07 -3.01339e-05     -6.91227 
          60     0.853332 -2.67159e-05 -4.11779e-05     -6.91226 
          60         1.08 -4.77915e-05 -5.23211e-05     -6.91226 
          60      1.33333 -4.43621e-05 -6.14783e-05     -6.91226 
          60      1.61333 -2.83146e-05 -6.78844e-05     -6.91225 
          60         1.92 -9.71511e-06 -7.08108e-05     -6.91225 
          60      2.25333  8.37162e-06 -7.02053e-05     -6.91224 
          60      2.61333  2.48327e-05   -6.628e-05     -6.91223 
          60            3  4.02337e-05 -5.97941e-05     -6.91222 
          80            0           -0           -0     -6.76145 
          80     0.013333  2.79695e-05 -8.19433e-09     -6.76145 
          80     0.053333  2.86155e-05 -1.12241e-07     -6.76145 
          80         0.12  3.89111e-05 -4.28672e-07     -6.76145 
          80     0.213332  4.86609e-05 -9.14825e-07     -6.76144 
          80     0.333332  5.43361e-05 -1.39878e-06     -6.76144 
          80         0.48  5.68601e-05 -1.79184e-06     -6.76144 
          80     0.653331  5.75163e-05 -2.19208e-06     -6.76144 
          80     0.853332  5.44715e-05  -2.8168e-06     -6.76144 
          80         1.08   4.7549e-05 -3.69113e-06     -6.76144 
          80      1.33333   4.1925e-05 -4.46942e-06     -6.76144 
          80      1.61333  3.68847e-05 -4.91809e-06     -6.76144 
          80         1.92  2.97359e-05 -5.12719e-06     -6.76143 
          80      2.25333   2.2632e-05 -5.05987e-06     -6.76143 
          80      2.61333  1.79134e-05 -4.73755e-06     -6.76142 
          80            3  1.67275e-05 -4.27346e-06     -6.76141 
         100            0  3.76318e-20  2.36863e-26     -6.61374 
         100     0.013333  3.34542e-05 -8.03482e-09     -6.61374 
         100     0.053333  4.81624e-05 -9.47752e-08     -6.61374 
         100         0.12  7.08436e-05 -2.53057e-07     -6.61374 
         100     0.213332  8.20731e-05 -1.51409e-07     -6.61374 
         100     0.333332  7.72315e-05  6.60769e-07     -6.61374 
         100         0.48  6.41106e-05  2.29118e-06     -6.61374 
         100     0.653331  5.12074e-05  4.43307e-06     -6.61374 
         100     0.853332  4.09156e-05  6.69822e-06     -6.61374 
         100         1.08  3.36697e-05  8.91925e-06     -6.61374 
         100      1.33333  2.93117e-05  1.10136e-05     -6.61374 
         100      1.61333  2.52989e-05  1.28526e-05     -6.61374 
         100         1.92  1.92294e-05  1.40365e-05     -6.61373 
         100      2.25333   1.4133e-05  1.47017e-05     -6.61373 
         100      2.61333  1.06514e-05  1.46138e-05     -6.61373 
         100            3  7.26636e-06    1.388e-05     -6.61373 
         150            0           -0           -0     -6.25179 
         150     0.013333  1.33601e-05  7.33317e-08     -6.25179 
         150     0.053333 -3.99131e-05  1.05074e-06     -6.25179 
         150         0.12 -0.000133459  4.39483e-06     -6.25179 
         150     0.213332 -0.000244979  1.06026e-05     -6.25179 
         150     0.333332 -0.000328323  1.85801e-05     -6.25179 
         150         0.48 -0.000363883  2.68891e-05     -6.25179 
         150     0.653331 -0.000359293  3.51371e-05     -6.25179 
         150     0.853332 -0.000321856  4.38396e-05     -6.25179 
         150         1.08  -0.00026041  5.29242e-05     -6.25179 
         150      1.33333 -0.000193689  6.12849e-05     -6.25179 
         150      1.61333 -0.000125637  6.76963e-05     -6.25178 
         150         1.92 -4.82466e-05  7.16474e-05     -6.25178 
         150      2.25333  1.95235e-05  7.25292e-05     -6.25177 
         150      2.61333  7.12449e-05   7.0594e-05     -6.25177 
         150            3  0.000109944  6.69277e-05     -6.25176 
         200            0            0            0     -5.89391 
         200     0.013333  1.25281e-05  1.69069e-08     -5.89391 
         200     0.053333 -2.88949e-05  2.21269e-07     -5.89391 
         200         0.12 -7.99515e-05  8.08949e-07     -5.89391 
         200     0.213332 -0.000130762  1.65989e-06     -5.89391 
         200     0.333332 -0.000169595   2.4266e-06     -5.89391 
         200         0.48 -0.000195254  2.84457e-06     -5.89391 
         200     0.653331 -0.000211315  2.92631e-06     -5.89391 
         200     0.853332 -0.000214172  3.17423e-06     -5.89391 
         200         1.08 -0.000192931  4.38962e-06     -5.89391 
         200      1.33333 -0.000151515  6.73255e-06     -5.89391 
         200      1.61333 -0.000105336  9.37997e-06     -5.89391 
         200         1.92 -5.54289e-05  1.18373e-05     -5.89391 
         200      2.25333 -8.73349e-06   1.4008e-05      -5.8939 
         200      2.61333  3.17263e-05  1.56152e-05      -5.8939 
         200            3  6.60868e-05  1.68023e-05      -5.8939 
         250            0           -0           -0     -5.53694 
         250     0.013333  8.15216e-05 -3.77381e-08     -5.53694 
         250     0.053333  0.000227074  -4.4102e-07     -5.53694 
         250         0.12  0.000411017 -1.17686e-06     -5.53694 
         250     0.213332  0.000544727 -6.87512e-07     -5.53694 
         250     0.333332   0.00058708  3.33963e-06     -5.53694 
         250         0.48  0.000566027  1.19312e-05     -5.53694 
         250     0.653331  0.000528806  2.40833e-05     -5.53694 
         250     0.853332  0.000487798  3.75414e-05     -5.53694 
         250         1.08  0.000426415  5.01796e-05     -5.53694 
         250      1.33333  0.000343784  6.11098e-05     -5.53694 
         250      1.61333  0.000254614  7.05475e-05     -5.53694 
         250         1.92   0.00016035  7.78663e-05     -5.53695 
         250      2.25333  7.07565e-05  8.22901e-05     -5.53695 
         250      2.61333 -6.44761e-06  8.36909e-05     -5.53696 
         250            3 -6.56991e-05  8.20964e-05     -5.53697 
         300            0            0            0     -5.18011 
         300     0.013333  9.30309e-05  -4.4328e-08     -5.18011 
         300     0.053333  0.000269514 -5.19394e-07     -5.18011 
         300         0.12  0.000491588 -1.40227e-06     -5.18011 
         300     0.213332  0.000653417  -9.0942e-07     -5.18011 
         300     0.333332  0.000703237   3.6502e-06     -5.18011 
         300         0.48  0.000672841  1.35765e-05     -5.18011 
         300     0.653331  0.000622587  2.78971e-05      -5.1801 
         300     0.853332  0.000573885  4.40927e-05      -5.1801 
         300         1.08   0.00050431  5.93164e-05      -5.1801 
         300      1.33333  0.000404602  7.20416e-05     -5.18011 
         300      1.61333  0.000298084  8.27432e-05     -5.18011 
         300         1.92   0.00018967   9.1187e-05     -5.18011 
         300      2.25333  8.56844e-05  9.65705e-05     -5.18012 
         300      2.61333 -8.03295e-06   9.8527e-05     -5.18013 
         300            3 -8.53695e-05  9.69704e-05     -5.18015 
         350            0           -0           -0     -4.82285 
         350     0.013333 -2.50652e-05  -1.3436e-07     -4.82285 
         350     0.053333 -0.000118732 -2.07698e-06     -4.82285 
         350         0.12 -0.000122246 -9.74883e-06     -4.82285 
         350     0.213332  1.57923e-05 -2.70929e-05     -4.82285 
         350     0.333332  0.000230656 -5.52048e-05     -4.82285 
         350         0.48  0.000412246 -9.19504e-05     -4.82285 
         350     0.653331  0.000499621  -0.00013439     -4.82285 
         350     0.853332  0.000492354 -0.000180555     -4.82285 
         350         1.08  0.000424334  -0.00022859     -4.82285 
         350      1.33333  0.000344725 -0.000275508     -4.82285 
         350      1.61333  0.000278518 -0.000317794     -4.82285 
         350         1.92  0.000208519 -0.000352315     -4.82286 
         350      2.25333  0.000137702 -0.000376231     -4.82286 
         350      2.61333  7.05532e-05 -0.000387602     -4.82286 
         350            3  1.05881e-05 -0.000385738     -4.82287 
         400            0           -0           -0     -4.46517 
         400     0.013333 -4.35416e-05  5.83542e-08     -4.46517 
         400     0.053333 -0.000236713  7.29416e-07     -4.46517 
         400         0.12 -0.000479315  2.35774e-06     -4.46517 
         400     0.213332 -0.000679119  3.52606e-06     -4.46517 
         400     0.333332 -0.000776207  1.72737e-06     -4.46517 
         400         0.48 -0.000790803 -4.36388e-06     -4.46517 
         400     0.653331 -0.000777058 -1.38765e-05     -4.46517 
         400     0.853332 -0.000752946 -2.42925e-05     -4.46517 
         400         1.08 -0.000687494 -3.24583e-05     -4.46517 
         400      1.33333  -0.00056555 -3.67315e-05     -4.46517 
         400      1.61333 -0.000426386 -3.84219e-05     -4.46517 
         400         1.92 -0.000290022 -3.89553e-05     -4.46517 
         400      2.25333 -0.000155297 -3.81619e-05     -4.46516 
         400      2.61333 -2.60488e-05 -3.60902e-05     -4.46515 
         400            3  8.84122e-05 -3.28388e-05     -4.46513 
         450            0            0            0     -4.10651 
         450     0.013333 -2.26502e-05  6.74285e-08     -4.10651 
         450     0.053333 -0.000166945  9.18018e-07     -4.10651 
         450         0.12 -0.000365129  3.50924e-06     -4.10651 
         450     0.213332 -0.000547893  7.33936e-06     -4.10651 
         450     0.333332 -0.000645671   1.0265e-05     -4.10651 
         450         0.48 -0.000652248  1.03635e-05     -4.10651 
         450     0.653331 -0.000610529  7.57147e-06     -4.10651 
         450     0.853332 -0.000551558  3.52185e-06     -4.10651 
         450         1.08  -0.00047249  1.81925e-07     -4.10651 
         450      1.33333 -0.000375181 -1.94302e-06     -4.10651 
         450      1.61333 -0.000282032  -3.9778e-06     -4.10651 
         450         1.92 -0.000192356 -6.63285e-06      -4.1065 
         450      2.25333 -0.000101344 -9.37815e-06      -4.1065 
         450      2.61333 -1.28489e-05 -1.20595e-05     -4.10649 
         450            3  6.47206e-05 -1.45819e-05     -4.10648 
         500            0           -0           -0     -3.74695 
         500     0.013333  6.55041e-05  3.65467e-09     -3.74695 
         500     0.053333  0.000165903  9.61397e-08     -3.74695 
         500         0.12  0.000295152  6.87496e-07     -3.74695 
         500     0.213332  0.000403199  2.56701e-06     -3.74695 
         500     0.333332  0.000469559  6.46908e-06     -3.74695 
         500         0.48  0.000502165  1.27236e-05     -3.74695 
         500     0.653331  0.000520964  2.13843e-05     -3.74695 
         500     0.853332  0.000540159  3.22311e-05     -3.74695 
         500         1.08  0.000551238  4.42032e-05     -3.74695 
         500      1.33333  0.000524966  5.53019e-05     -3.74695 
         500      1.61333  0.000453997  6.41112e-05     -3.74696 
         500         1.92  0.000365678  7.08052e-05     -3.74696 
         500      2.25333  0.000270936  7.52312e-05     -3.74696 
         500      2.61333  0.000173874  7.72865e-05     -3.74696 
         500            3  7.99707e-05  7.68444e-05     -3.74697 
         550            0            0            0     -3.38704 
         550     0.013333  0.000115497  4.88294e-08     -3.38704 
         550     0.053333  0.000326191  8.63365e-07     -3.38704 
         550         0.12  0.000530947  4.76964e-06     -3.38704 
         550     0.213332  0.000597999  1.54942e-05     -3.38704 
         550     0.333332  0.000508561  3.60734e-05     -3.38704 
         550         0.48  0.000350796  6.67148e-05     -3.38704 
         550     0.653331  0.000225032  0.000105104     -3.38704 
         550     0.853332  0.000169599  0.000148195     -3.38704 
         550         1.08  0.000158285  0.000192958     -3.38704 
         550      1.33333  0.000143318  0.000236507     -3.38704 
         550      1.61333  0.000109448  0.000276878     -3.38705 
         550         1.92  7.40521e-05  0.000312731     -3.38705 
         550      2.25333  4.02658e-05  0.000341803     -3.38705 
         550      2.61333   8.0495e-06  0.000361986     -3.38706 
         550            3 -2.03053e-05  0.000371667     -3.38706 
         600            0           -0           -0     -3.02659 
         600     0.013333 -0.000100585 -9.06025e-08     -3.02659 
         600     0.053333 -0.000400273 -1.51985e-06     -3.02659 
         600         0.12 -0.000670216 -7.91654e-06     -3.02659 
         600     0.213332 -0.000751799 -2.44328e-05     -3.02659 
         600     0.333332 -0.000635331 -5.46733e-05     -3.02659 
         600         0.48  -0.00044505 -9.83122e-05     -3.02659 
         600     0.653331 -0.000308791 -0.000152163     -3.02659 
         600     0.853332 -0.000272053 -0.000212655     -3.02659 
         600         1.08 -0.000298439   -0.0002762     -3.02659 
         600      1.33333 -0.000310073 -0.000338453     -3.02659 
         600      1.61333 -0.000264361 -0.000395409     -3.02659 
         600         1.92 -0.000196039 -0.000445007     -3.02659 
         600      2.25333 -0.000125612  -0.00048484     -3.02659 
         600      2.61333  -5.6296e-05  -0.00051231     -3.02658 
         600            3  1.03448e-05 -0.000525161     -3.02658 
         650            0            0            0      -2.6648 
         650     0.013333  0.000157042  1.07077e-07      -2.6648 
         650     0.053333  0.000459225  1.76662e-06      -2.6648 
         650         0.12  0.000734206  9.03259e-06      -2.6648 
         650     0.213332  0.000803184  2.74398e-05      -2.6648 
         650     0.333332  0.000660448  6.06913e-05      -2.6648 
         650         0.48  0.000442326  0.000108295      -2.6648 
         650     0.653331  0.000286949  0.000166886     -2.66479 
         650     0.853332  0.000246085  0.000232903     -2.66479 
         650         1.08   0.00028589  0.000302891     -2.66479 
         650      1.33333  0.000319897   0.00037221      -2.6648 
         650      1.61333  0.000289158  0.000436113      -2.6648 
         650         1.92  0.000226779  0.000492231      -2.6648 
         650      2.25333   0.00016221  0.000538026      -2.6648 
         650      2.61333  0.000100721  0.000570857     -2.66481 
         650            3  4.10951e-05  0.000588194     -2.66481 
         700            0           -0           -0     -2.30272 
         700     0.013333 -0.000117524 -3.72531e-08     -2.30272 
         700     0.053333 -0.000479555 -7.20273e-07     -2.30272 
         700         0.12 -0.000870953 -4.33202e-06     -2.30272 
         700     0.213332  -0.00111128 -1.50366e-05     -2.30272 
         700     0.333332  -0.00113293 -3.68458e-05     -2.30272 
         700         0.48  -0.00101272 -7.10244e-05     -2.30272 
         700     0.653331 -0.000877135 -0.000115872     -2.30272 
         700     0.853332  -0.00080194 -0.000168414     -2.30272 
         700         1.08 -0.000781309  -0.00022524     -2.30272 
         700      1.33333 -0.000749854 -0.000282084     -2.30272 
         700      1.61333 -0.000654795 -0.000334792     -2.30272 
         700         1.92 -0.000521134 -0.000381607     -2.30272 
         700      2.25333 -0.000378238 -0.000420697     -2.30271 
         700      2.61333 -0.000233599 -0.000450058      -2.3027 
         700            3 -8.85609e-05 -0.000467645     -2.30269 
         750            0            0            0     -1.93847 
         750     0.013333  8.43802e-05 -9.36792e-08     -1.93847 
         750     0.053333  0.000264826 -1.33941e-06     -1.93847 
         750         0.12   0.00056644 -5.61562e-06     -1.93847 
         750     0.213332  0.000913792 -1.36592e-05     -1.93847 
         750     0.333332   0.00120408 -2.40754e-05     -1.93847 
         750         0.48   0.00137583 -3.44099e-05     -1.93847 
         750     0.653331   0.00143938 -4.30114e-05     -1.93847 
         750     0.853332   0.00143599 -4.99277e-05     -1.93847 
         750         1.08   0.00138332 -5.66677e-05     -1.93847 
         750      1.33333    0.0012708 -6.49728e-05     -1.93847 
         750      1.61333   0.00110304 -7.53107e-05     -1.93847 
         750         1.92  0.000912949  -8.6181e-05     -1.93847 
         750      2.25333  0.000711466 -9.62177e-05     -1.93848 
         750      2.61333  0.000500288 -0.000104555     -1.93849 
         750            3  0.000283971 -0.000110642      -1.9385 
         800            0           -0           -0      -1.5741 
         800     0.013333  0.000121397 -1.31441e-08      -1.5741 
         800     0.053333  0.000373544 -1.11602e-07      -1.5741 
         800         0.12  0.000698568  9.58599e-08      -1.5741 
         800     0.213332  0.000967475  2.30541e-06      -1.5741 
         800     0.333332   0.00109536  9.17855e-06      -1.5741 
         800         0.48   0.00108583  2.27507e-05      -1.5741 
         800     0.653331   0.00100676  4.32179e-05      -1.5741 
         800     0.853332  0.000923556  6.92087e-05      -1.5741 
         800         1.08  0.000858758  9.87331e-05      -1.5741 
         800      1.33333  0.000797649   0.00012984      -1.5741 
         800      1.61333  0.000716584  0.000160738      -1.5741 
         800         1.92  0.000609785  0.000189932      -1.5741 
         800      2.25333  0.000484881  0.000216113      -1.5741 
         800      2.61333  0.000349483  0.000237826     -1.57411 
         800            3  0.000210164  0.000253786     -1.57412 
         850            0           -0           -0     -1.20961 
         850     0.013333  4.73835e-05  1.52067e-07     -1.20961 
         850     0.053333   5.1183e-05  2.30784e-06     -1.20961 
         850         0.12 -6.49361e-05  1.06008e-05     -1.20961 
         850     0.213332 -0.000342798  2.89004e-05     -1.20961 
         850     0.333332 -0.000688965  5.79563e-05     -1.20961 
         850         0.48 -0.000963824  9.50797e-05     -1.20961 
         850     0.653331  -0.00109468  0.000136758     -1.20961 
         850     0.853332  -0.00109045  0.000181154     -1.20961 
         850         1.08 -0.000989396  0.000227997     -1.20961 
         850      1.33333 -0.000839199  0.000276399     -1.20961 
         850      1.61333 -0.000692947  0.000323753     -1.20961 
         850         1.92 -0.000568392   0.00036731     -1.20961 
         850      2.25333 -0.000444336  0.000404965      -1.2096 
         850      2.61333  -0.00031122  0.000434949      -1.2096 
         850            3 -0.000173534  0.000455326     -1.20959 
         900            0           -0           -0    -0.844187 
         900     0.013333  -0.00016545   -2.366e-08    -0.844187 
         900     0.053333 -0.000656849 -5.59213e-07    -0.844187 
         900         0.12  -0.00121313 -3.92806e-06    -0.844187 
         900     0.213332  -0.00158392 -1.51354e-05    -0.844188 
         900     0.333332  -0.00164707 -3.98108e-05    -0.844188 
         900         0.48  -0.00148208 -8.05037e-05    -0.844188 
         900     0.653331  -0.00126586 -0.000135381    -0.844189 
         900     0.853332  -0.00112123 -0.000200157     -0.84419 
         900         1.08  -0.00105581 -0.000269985     -0.84419 
         900      1.33333 -0.000995165 -0.000339933     -0.84419 
         900      1.61333 -0.000874213  -0.00040597    -0.844188 
         900         1.92 -0.000710172 -0.000466009    -0.844185 
         900      2.25333 -0.000537394 -0.000519425     -0.84418 
         900      2.61333 -0.000363857  -0.00056343    -0.844171 
         900            3 -0.000186497 -0.000594873    -0.844159 
         950            0           -0           -0    -0.476742 
         950     0.013333   5.7833e-05 -2.35933e-07    -0.476742 
         950     0.053333  0.000217669 -3.50062e-06    -0.476743 
         950         0.12  0.000618622 -1.55558e-05    -0.476743 
         950     0.213332   0.00122681 -4.07948e-05    -0.476743 
         950     0.333332   0.00185148 -7.85693e-05    -0.476743 
         950         0.48   0.00229344 -0.000123977    -0.476742 
         950     0.653331   0.00248923 -0.000172217    -0.476742 
         950     0.853332   0.00248806 -0.000221891    -0.476741 
         950         1.08   0.00234317 -0.000274673    -0.476741 
         950      1.33333   0.00208454 -0.000331898    -0.476741 
         950      1.61333   0.00177121  -0.00039146    -0.476743 
         950         1.92   0.00147646 -0.000448376    -0.476747 
         950      2.25333   0.00118724 -0.000499138    -0.476755 
         950      2.61333  0.000884884 -0.000541157    -0.476767 
         950            3  0.000568072 -0.000572004    -0.476784 
        1000            0           -0           -0    -0.109381 
        1000     0.013333  0.000187122 -2.11725e-08    -0.109381 
        1000     0.053333  0.000621604 -1.39123e-07    -0.109381 
        1000         0.12    0.0011962  4.81634e-07    -0.109381 
        1000     0.213332   0.00170564   4.9224e-06    -0.109381 
        1000     0.333332   0.00199881  1.76563e-05     -0.10938 
        1000         0.48   0.00206048  4.18451e-05     -0.10938 
        1000     0.653331   0.00198859   7.7693e-05     -0.10938 
        1000     0.853332   0.00189633  0.000123107    -0.109379 
        1000         1.08   0.00183044  0.000174725    -0.109379 
        1000      1.33333   0.00175006  0.000228168    -0.109379 
        1000      1.61333   0.00158659  0.000278969    -0.109381 
        1000         1.92   0.00134387  0.000325051    -0.109386 
        1000      2.25333    0.0010691  0.000366293    -0.109393 
        1000      2.61333  0.000783056  0.000401665    -0.109404 
        1000            3  0.000488065  0.000429485     -0.10942 
