Variables = x, y, u, v, p

Zone, I=400, F=POINT
         800            0            0            0   0.00703668 
         800     0.000471  0.000175408 -1.82085e-08   0.00703667 
         800     0.001884  0.000702497 -9.40275e-08   0.00703665 
         800     0.004239   0.00158381 -2.98972e-07    0.0070366 
         800     0.007537   0.00282378 -7.72053e-07   0.00703653 
         800     0.011776   0.00442703 -1.72984e-06   0.00703644 
         800     0.016958   0.00640062 -3.46002e-06   0.00703632 
         800     0.023081   0.00875065 -6.29551e-06   0.00703618 
         800      0.03015     0.011486 -1.05954e-05   0.00703603 
         800     0.038157    0.0146102 -1.67284e-05   0.00703586 
         800     0.047107    0.0181309 -2.51021e-05   0.00703569 
         800     0.056999    0.0220518 -3.61587e-05    0.0070355 
         800     0.067837    0.0263769 -5.03541e-05   0.00703531 
         800     0.079614    0.0311034 -6.80856e-05   0.00703511 
         800     0.092332    0.0362294 -8.97339e-05   0.00703492 
         800     0.105992    0.0417495 -0.000115706   0.00703472 
         800       0.1206    0.0476573  -0.00014631   0.00703454 
         800     0.136145    0.0539363 -0.000181798   0.00703436 
         800     0.152631    0.0605733  -0.00022237   0.00703419 
         800     0.170067    0.0675538 -0.000268172   0.00703404 
         800     0.188438    0.0748518   -0.0003192   0.00703392 
         800     0.207751    0.0824481 -0.000375419   0.00703381 
         800     0.228006    0.0903193 -0.000436689   0.00703373 
         800     0.249212    0.0984451 -0.000502806   0.00703368 
         800     0.271351     0.106795   -0.0005734   0.00703367 
         800     0.294433     0.115351  -0.00064811   0.00703369 
         800     0.318456     0.124091 -0.000726475   0.00703375 
         800     0.343432     0.133001 -0.000808021   0.00703385 
         800     0.369339     0.142059 -0.000892131   0.00703399 
         800     0.396189     0.151256  -0.00097827   0.00703418 
         800     0.423981     0.160585  -0.00106586   0.00703441 
         800     0.452726     0.170043  -0.00115437    0.0070347 
         800     0.482403     0.179624  -0.00124318   0.00703502 
         800     0.513021     0.189333  -0.00133182    0.0070354 
         800     0.544594      0.19918  -0.00141988   0.00703582 
         800     0.577096     0.209163  -0.00150689   0.00703628 
         800     0.610541     0.219299  -0.00159255   0.00703677 
         800     0.644927     0.229595  -0.00167661    0.0070373 
         800      0.68027      0.24007  -0.00175892   0.00703784 
         800     0.716541     0.250724  -0.00183932    0.0070384 
         800     0.753754     0.261573  -0.00191781   0.00703895 
         800     0.791909     0.272626  -0.00199443   0.00703949 
         800     0.831022     0.283895  -0.00206931   0.00703999 
         800     0.871061     0.295377  -0.00214255   0.00704043 
         800     0.912043      0.30708  -0.00221437   0.00704079 
         800     0.953966     0.319007  -0.00228498   0.00704103 
         800     0.996849     0.331162  -0.00235464   0.00704112 
         800      1.04066     0.343535   -0.0024235   0.00704103 
         800      1.08541     0.356129  -0.00249175   0.00704071 
         800      1.13112     0.368946  -0.00255958   0.00704012 
         800      1.17775     0.381971    -0.002627    0.0070392 
         800      1.22533     0.395204  -0.00269408   0.00703791 
         800      1.27384     0.408639  -0.00276077   0.00703618 
         800      1.32333     0.422277  -0.00282704   0.00703396 
         800      1.37373     0.436098   -0.0028927   0.00703117 
         800      1.42507     0.450099  -0.00295762   0.00702774 
         800      1.47736      0.46427  -0.00302163    0.0070236 
         800      1.53061     0.478605  -0.00308456   0.00701868 
         800      1.58478      0.49308  -0.00314618   0.00701289 
         800      1.63989     0.507686  -0.00320632   0.00700614 
         800      1.69595     0.522407  -0.00326481   0.00699836 
         800      1.75297     0.537231   -0.0033215   0.00698946 
         800      1.81091     0.552129  -0.00337618   0.00697933 
         800      1.86979     0.567084  -0.00342872    0.0069679 
         800      1.92964     0.582083  -0.00347898   0.00695507 
         800       1.9904      0.59709  -0.00352678   0.00694075 
         800      2.05211     0.612091    -0.003572   0.00692485 
         800      2.11476      0.62706  -0.00361449   0.00690727 
         800      2.17838     0.641979  -0.00365414   0.00688793 
         800      2.24291     0.656812  -0.00369077   0.00686674 
         800      2.30839     0.671539  -0.00372425   0.00684363 
         800       2.3748     0.686133  -0.00375448   0.00681851 
         800      2.44219     0.700574  -0.00378135    0.0067913 
         800      2.51049     0.714825  -0.00380472   0.00676195 
         800      2.57974     0.728864   -0.0038245   0.00673038 
         800      2.64993     0.742665  -0.00384059   0.00669656 
         800      2.72108     0.756208  -0.00385294    0.0066604 
         800      2.79315     0.769457  -0.00386143   0.00662191 
         800      2.86617     0.782391  -0.00386611   0.00658105 
         800      2.94012     0.794988  -0.00386685   0.00653779 
         800      3.01505      0.80723  -0.00386364   0.00649209 
         800      3.09089     0.819086   -0.0038565   0.00644399 
         800      3.16767      0.83054  -0.00384545    0.0063935 
         800      3.24542     0.841581  -0.00383053   0.00634062 
         800      3.32409     0.852182  -0.00381176   0.00628542 
         800       3.4037     0.862336  -0.00378918   0.00622791 
         800      3.48425      0.87203   -0.0037629   0.00616814 
         800      3.56577     0.881259  -0.00373301   0.00610613 
         800       3.6482     0.890009  -0.00369966   0.00604202 
         800      3.73158      0.89828  -0.00366296   0.00597589 
         800       3.8159     0.906071  -0.00362297   0.00590782 
         800      3.90119     0.913387  -0.00357977   0.00583788 
         800       3.9874     0.920225   -0.0035336    0.0057661 
         800      4.07454     0.926594  -0.00348498   0.00569267 
         800      4.16263     0.932507  -0.00343391   0.00561751 
         800      4.25169     0.937969  -0.00338024    0.0055409 
         800      4.34166     0.942998  -0.00332403   0.00546293 
         800      4.43258     0.947609  -0.00326619    0.0053836 
         800      4.52447      0.95182  -0.00320685   0.00530319 
         800      4.61726     0.955646  -0.00314575   0.00522187 
         800        4.711      0.95911   -0.0030828   0.00513962 
         800      4.80569     0.962233   -0.0030185   0.00505639 
         800      4.90135     0.965038  -0.00295358   0.00497224 
         800      4.99791     0.967542  -0.00288838   0.00488744 
         800      5.09542     0.969769  -0.00282214   0.00480227 
         800      5.19387     0.971744  -0.00275409   0.00471686 
         800       5.2933     0.973494  -0.00268763   0.00463057 
         800      5.39364     0.975024  -0.00261812   0.00454472 
         800      5.49491     0.976361   -0.0025506    0.0044581 
         800      5.59713     0.977534  -0.00248338    0.0043712 
         800      5.70033      0.97856  -0.00241511   0.00428431 
         800      5.80443     0.979451  -0.00234636   0.00419748 
         800      5.90948      0.98022   -0.0022783   0.00411064 
         800      6.01551      0.98088  -0.00221148   0.00402379 
         800      6.12244     0.981457  -0.00214481   0.00393692 
         800      6.23031     0.981963  -0.00207796   0.00385017 
         800      6.33912     0.982399  -0.00201115   0.00376373 
         800      6.44892     0.982778   -0.0019451   0.00367748 
         800      6.55962     0.983109  -0.00188006   0.00359147 
         800      6.67126       0.9834  -0.00181575   0.00350573 
         800      6.78384     0.983659  -0.00175169   0.00342035 
         800      6.89741      0.98389  -0.00168768   0.00333532 
         800      7.01187     0.984107  -0.00162481   0.00325066 
         800      7.12728     0.984308  -0.00156189   0.00316649 
         800      7.24363     0.984481   -0.0015002   0.00308268 
         800      7.36097     0.984645  -0.00143942   0.00299921 
         800       7.4792     0.984805   -0.0013793   0.00291625 
         800      7.59838     0.984958  -0.00131995   0.00283378 
         800      7.71854     0.985102  -0.00126149   0.00275175 
         800       7.8396     0.985237  -0.00120391   0.00267021 
         800      7.96161     0.985368  -0.00114695   0.00258913 
         800      8.08455     0.985498   -0.0010904   0.00250854 
         800      8.20849      0.98563  -0.00103419   0.00242848 
         800      8.33332     0.985762 -0.000978663    0.0023491 
         800      8.45909      0.98589 -0.000924361    0.0022704 
         800       8.5858     0.986008 -0.000871618   0.00219234 
         800      8.71351     0.986122 -0.000819498   0.00211459 
         800       8.8421     0.986257 -0.000765262   0.00203657 
         800      8.97164     0.986359 -0.000715523   0.00195943 
         800      9.10212     0.986491 -0.000664086   0.00188376 
         800       9.2336     0.986621 -0.000612823   0.00180894 
         800      9.36596      0.98672 -0.000568015   0.00173405 
         800      9.49927     0.986846 -0.000515936   0.00166105 
         800      9.63352      0.98696 -0.000468869   0.00158833 
         800      9.76877     0.987068 -0.000423958    0.0015161 
         800       9.9049     0.987173 -0.000379501   0.00144456 
         800       10.042     0.987281 -0.000334915   0.00137373 
         800      10.1801      0.98739 -0.000290333    0.0013036 
         800       10.319       0.9875 -0.000246269    0.0012342 
         800      10.4589      0.98761 -0.000203201   0.00116553 
         800      10.5998     0.987717 -0.000161443   0.00109759 
         800      10.7416     0.987821 -0.000121016   0.00103039 
         800      10.8843     0.987922 -8.17258e-05  0.000964016 
         800       11.028     0.988021 -4.31661e-05  0.000898464 
         800      11.1726     0.988121 -4.95956e-06  0.000833738 
         800      11.3182     0.988221  3.30836e-05   0.00076979 
         800      11.4647     0.988321   7.0753e-05  0.000706626 
         800      11.6122     0.988419  0.000107505  0.000644173 
         800      11.7605      0.98851  0.000142619  0.000582434 
         800      11.9099     0.988598  0.000175827  0.000521517 
         800      12.0602     0.988699  0.000208426   0.00046186 
         800      12.2114     0.988799   0.00024359  0.000402407 
         800      12.3636     0.988886  0.000277007  0.000343437 
         800      12.5167     0.988963  0.000304089  0.000284978 
         800      12.6707     0.989056  0.000339935  0.000229098 
         800      12.8257     0.989151  0.000371955  0.000173176 
         800      12.9817     0.989241  0.000400793  0.000117783 
         800      13.1386     0.989324   0.00042784  6.32239e-05 
         800      13.2964     0.989404  0.000454576  9.57588e-06 
         800      13.4551     0.989483   0.00048192 -4.30722e-05 
         800      13.6149     0.989556  0.000508404 -9.45241e-05 
         800      13.7755     0.989632  0.000535948 -0.000145264 
         800      13.9371     0.989711  0.000563542 -0.000195404 
         800      14.0996     0.989793  0.000590136 -0.000244952 
         800      14.2631     0.989874  0.000615004  -0.00029386 
         800      14.4275     0.989953  0.000637937 -0.000341976 
         800      14.5928     0.990027  0.000659356 -0.000389196 
         800      14.7592     0.990096  0.000680143  -0.00043545 
         800      14.9264     0.990161  0.000701274 -0.000480688 
         800      15.0946     0.990225  0.000723418 -0.000525012 
         800      15.2637     0.990291  0.000746446 -0.000568598 
         800      15.4338     0.990361   0.00076921 -0.000611688 
         800      15.6048     0.990436  0.000789769 -0.000654416 
         800      15.7767     0.990513  0.000806601 -0.000696737 
         800      15.9496     0.990581  0.000821129 -0.000738082 
         800      16.1235     0.990628  0.000842345 -0.000777003 
         800      16.2982     0.990661  0.000859216 -0.000817524 
         800      16.4739     0.990726  0.000871181 -0.000857177 
         800      16.6506     0.990801   0.00089007 -0.000893696 
         800      16.8282     0.990869  0.000910471 -0.000929064 
         800      17.0068     0.990924  0.000929369 -0.000964368 
         800      17.1862     0.990976  0.000945574  -0.00100032 
         800      17.3667      0.99105  0.000959375  -0.00103766 
         800      17.5481     0.991076  0.000971237  -0.00107372 
         800      17.7304     0.991108  0.000981499  -0.00110875 
         800      17.9136     0.991166  0.000992647  -0.00114285 
         800      18.0979     0.991233   0.00100574  -0.00117558 
         800       18.283     0.991296   0.00102053  -0.00120684 
         800      18.4691     0.991347   0.00103591  -0.00123691 
         800      18.6561     0.991387   0.00105043  -0.00126617 
         800      18.8441      0.99142   0.00106293  -0.00129502 
         800       19.033     0.991453    0.0010729  -0.00132371 
         800      19.2228     0.991495   0.00108085  -0.00135227 
         800      19.4136     0.991547   0.00108816  -0.00138047 
         800      19.6054     0.991603   0.00109672   -0.0014079 
         800       19.798      0.99165   0.00110797  -0.00143416 
         800      19.9917     0.991678   0.00112141  -0.00145927 
         800      20.1862     0.991691   0.00113255  -0.00148428 
         800      20.3818      0.99175   0.00113204  -0.00151171 
         800      20.5782     0.991824    0.0011512  -0.00153349 
         800      20.7756     0.991853    0.0011599  -0.00155725 
         800       20.974     0.991872   0.00116525  -0.00158117 
         800      21.1732     0.991897   0.00117072  -0.00160434 
         800      21.3734     0.991929    0.0011775  -0.00162646 
         800      21.5745     0.991966   0.00118546  -0.00164759 
         800      21.7767     0.992002   0.00119396  -0.00166801 
         800      21.9797     0.992036   0.00120226  -0.00168801 
         800      22.1837     0.992066   0.00120982  -0.00170786 
         800      22.3886     0.992095   0.00121637  -0.00172768 
         800      22.5945     0.992124   0.00122183  -0.00174747 
         800      22.8013     0.992156   0.00122624  -0.00176705 
         800      23.0091     0.992189   0.00122979  -0.00178618 
         800      23.2177      0.99222     0.001233  -0.00180454 
         800      23.4274     0.992249   0.00123727  -0.00182187 
         800       23.638     0.992284   0.00124605  -0.00183803 
         800      23.8495      0.99228   0.00125094  -0.00185468 
         800       24.062     0.992297   0.00125739  -0.00187026 
         800      24.2754     0.992333    0.0012645  -0.00188504 
         800      24.4897     0.992374   0.00127047   -0.0018995 
         800       24.705     0.992412    0.0012747  -0.00191394 
         800      24.9213     0.992437   0.00127753  -0.00192845 
         800      25.1385     0.992445    0.0012799  -0.00194295 
         800      25.3566      0.99244   0.00128291  -0.00195719 
         800      25.5756     0.992444   0.00128708  -0.00197078 
         800      25.7957      0.99248   0.00129066  -0.00198356 
         800      26.0166     0.992502   0.00129457  -0.00199588 
         800      26.2385     0.992533   0.00129886  -0.00200748 
         800      26.4613     0.992559   0.00130228  -0.00201876 
         800      26.6851     0.992577   0.00130508  -0.00202992 
         800      26.9098     0.992591   0.00130793    -0.002041 
         800      27.1354     0.992603   0.00131132    -0.002052 
         800      27.3621     0.992618   0.00131537  -0.00206283 
         800      27.5896     0.992636   0.00131979  -0.00207339 
         800      27.8181     0.992656   0.00132409  -0.00208361 
         800      28.0475     0.992676   0.00132775  -0.00209341 
         800      28.2779     0.992694   0.00133047  -0.00210278 
         800      28.5092     0.992709   0.00133226   -0.0021117 
         800      28.7414      0.99272    0.0013335  -0.00212025 
         800      28.9746     0.992729   0.00133481   -0.0021285 
         800      29.2088     0.992736   0.00133682  -0.00213656 
         800      29.4439     0.992744   0.00133993  -0.00214452 
         800      29.6799     0.992756   0.00134399  -0.00215248 
         800      29.9168     0.992772   0.00134818  -0.00216046 
         800      30.1548     0.992789   0.00135116  -0.00216841 
         800      30.3936     0.992806   0.00135174  -0.00217617 
         800      30.6334     0.992822   0.00135034  -0.00218341 
         800      30.8742     0.992846   0.00135159  -0.00218963 
         800      31.1158     0.992874    0.0013619  -0.00219555 
         800      31.3584     0.992828   0.00135897  -0.00220342 
         800       31.602     0.992826   0.00135402  -0.00220987 
         800      31.8465     0.992837   0.00136365  -0.00221587 
         800      32.0919     0.992871   0.00136858  -0.00222118 
         800      32.3383     0.992898   0.00137022  -0.00222564 
         800      32.5856     0.992914   0.00137067  -0.00222934 
         800       32.834      0.99292   0.00137187  -0.00223247 
         800      33.0831     0.992914   0.00137237  -0.00223879 
         800      33.3333     0.992916   0.00137432  -0.00224517 
         800      33.5843     0.992925   0.00137779  -0.00225093 
         800      33.8364     0.992935   0.00138179  -0.00225611 
         800      34.0894     0.992941   0.00138515  -0.00226073 
         800      34.3433     0.992943    0.0013871  -0.00226488 
         800      34.5981     0.992941    0.0013876  -0.00226862 
         800       34.854     0.992941   0.00138736  -0.00227208 
         800      35.1107     0.992946    0.0013876  -0.00227539 
         800      35.3684     0.992962   0.00138952  -0.00227867 
         800      35.6271     0.992986   0.00139356  -0.00228207 
         800      35.8867     0.993013   0.00139883  -0.00228567 
         800      36.1472     0.993031    0.0014031  -0.00228944 
         800      36.4086     0.993027   0.00140382  -0.00229318 
         800      36.6711     0.992998   0.00140084  -0.00229641 
         800      36.9344     0.992964   0.00140189  -0.00229822 
         800      37.1987     0.993016   0.00141368  -0.00229989 
         800      37.4639     0.993066   0.00140378    -0.002306 
         800      37.7301     0.993034   0.00140857  -0.00230905 
         800      37.9972     0.993005   0.00141541  -0.00231125 
         800      38.2652     0.993008   0.00141971  -0.00231363 
         800      38.5342     0.993035    0.0014211  -0.00231636 
         800      38.8042     0.993061    0.0014208  -0.00231904 
         800      39.0751     0.993054   0.00141993  -0.00232085 
         800      39.3469     0.993013    0.0014194  -0.00232169 
         800      39.6197     0.993045   0.00142265  -0.00232467 
         800      39.8934     0.993059   0.00142708  -0.00232712 
         800       40.168     0.993063   0.00143122  -0.00232928 
         800      40.4436     0.993067   0.00143353  -0.00233128 
         800      40.7202     0.993074   0.00143363  -0.00233317 
         800      40.9977     0.993081   0.00143268  -0.00233498 
         800      41.2761     0.993081   0.00143275  -0.00233678 
         800      41.5554     0.993067    0.0014353  -0.00233859 
         800      41.8358     0.993046   0.00143968  -0.00234041 
         800       42.117     0.993037   0.00144316  -0.00234205 
         800      42.3992      0.99306   0.00144467  -0.00234292 
         800      42.6823     0.993087   0.00144752  -0.00234344 
         800      42.9664     0.993102   0.00145024  -0.00234497 
         800      43.2514     0.993117    0.0014542  -0.00234624 
         800      43.5373     0.993121   0.00145747  -0.00234746 
         800      43.8243     0.993115   0.00145961  -0.00234877 
         800      44.1121     0.993103   0.00146093  -0.00235024 
         800      44.4009      0.99309   0.00146186  -0.00235189 
         800      44.6906     0.993081   0.00146281  -0.00235363 
         800      44.9813     0.993081   0.00146413  -0.00235525 
         800      45.2729     0.993092   0.00146651  -0.00235626 
         800      45.5654      0.99312   0.00147145  -0.00235589 
         800      45.8589     0.993155   0.00147887   -0.0023544 
         800      46.1534      0.99312   0.00147629   -0.0023579 
         800      46.4488     0.993107   0.00147734  -0.00235966 
         800      46.7451      0.99311   0.00147994   -0.0023604 
         800      47.0423     0.993123   0.00148289  -0.00236068 
         800      47.3406      0.99314   0.00148586  -0.00236089 
         800      47.6397     0.993156   0.00148909  -0.00236123 
         800      47.9398     0.993164   0.00149297  -0.00236179 
         800      48.2409      0.99316   0.00149758  -0.00236254 
         800      48.5428     0.993144   0.00150227  -0.00236337 
         800      48.8457      0.99312   0.00150562  -0.00236416 
         800      49.1496     0.993101   0.00150591  -0.00236479 
         800      49.4545     0.993098   0.00150261  -0.00236522 
         800      49.7602     0.993121   0.00149915   -0.0023656 
         800      50.0668     0.993158   0.00150759  -0.00236632 
         800      50.3744     0.993142   0.00151028  -0.00236734 
         800      50.6831     0.993114   0.00150676  -0.00236801 
         800      50.9926       0.9931   0.00151213  -0.00236855 
         800       51.303     0.993099   0.00151926  -0.00236897 
         800      51.6144     0.993106    0.0015249  -0.00236926 
         800      51.9268     0.993118   0.00152819  -0.00236942 
         800        52.24     0.993132   0.00152962  -0.00236948 
         800      52.5542     0.993145   0.00153022  -0.00236945 
         800      52.8694     0.993155   0.00153105  -0.00236937 
         800      53.1856     0.993162   0.00153289  -0.00236928 
         800      53.5026     0.993164    0.0015361  -0.00236922 
         800      53.8205     0.993163   0.00154059  -0.00236926 
         800      54.1396     0.993159   0.00154594  -0.00236943 
         800      54.4594     0.993154    0.0015515   -0.0023698 
         800      54.7802     0.993148   0.00155656  -0.00237038 
         800      55.1019     0.993144   0.00156055  -0.00237118 
         800      55.4247     0.993141    0.0015631  -0.00237221 
         800      55.7483     0.993141   0.00156419  -0.00237342 
         800      56.0729     0.993144   0.00156413  -0.00237474 
         800      56.3984     0.993148   0.00156356  -0.00237607 
         800       56.725     0.993154    0.0015633  -0.00237726 
         800      57.0523     0.993159   0.00156422  -0.00237814 
         800      57.3807     0.993163   0.00156702  -0.00237853 
         800      57.7099     0.993163   0.00157205   -0.0023782 
         800      58.0403     0.993159   0.00157908  -0.00237693 
         800      58.3714     0.993148   0.00158724  -0.00237454 
         800      58.7035      0.99313   0.00159503  -0.00237084 
         800      59.0367     0.993105   0.00160055  -0.00236575 
         800      59.3707     0.993087   0.00160269  -0.00236105 
         800      59.7056     0.993132    0.0016036  -0.00236602 
         800      60.0414     0.993181    0.0015992  -0.00237098 
         800      60.3784     0.993231   0.00159037  -0.00237598 
         800      60.7161      0.99327   0.00158169  -0.00238099 
         800      61.0548     0.993273   0.00158424  -0.00238582 
         800      61.3944     0.993202   0.00161964  -0.00239018 
         800      61.7351     0.993146   0.00161444  -0.00237777 
         800      62.0767     0.993124   0.00160052   -0.0023677 
         800      62.4191     0.993099   0.00159782  -0.00236366 
         800      62.7625     0.993073   0.00160169   -0.0023634 
         800       63.107     0.993048    0.0016091  -0.00236517 
         800      63.4523     0.993023   0.00161981  -0.00237288 
         800      63.7985     0.993024   0.00163331  -0.00238049 
         800      64.1458     0.993055   0.00164524  -0.00238468 
         800      64.4939      0.99311   0.00165372  -0.00238632 
         800       64.843     0.993177   0.00165847  -0.00238615 
         800      65.1929     0.993246   0.00166012  -0.00238479 
         800       65.544     0.993307   0.00165974  -0.00238274 
         800      65.8959     0.993348    0.0016585  -0.00238037 
         800      66.2487     0.993363   0.00165743  -0.00237799 
         800      66.6025      0.99335   0.00165728  -0.00237582 
         800      66.9573     0.993308   0.00165846    -0.002374 
         800       67.313     0.993243   0.00166109  -0.00237261 
         800      67.6695     0.993163     0.001665  -0.00237171 
         800      68.0271     0.993078   0.00166982  -0.00237127 
         800      68.3857     0.993001   0.00167511  -0.00237127 
         800      68.7451     0.992946   0.00168041  -0.00237167 
         800      69.1055     0.992922   0.00168534  -0.00237238 
         800      69.4669     0.992938   0.00168965  -0.00237333 
         800      69.8291     0.992994   0.00169328  -0.00237446 
         800      70.1923     0.993086   0.00169635  -0.00237569 
         800      70.5564     0.993203   0.00169912  -0.00237696 
         800      70.9217     0.993323   0.00170199  -0.00237823 
         800      71.2877     0.993424   0.00170533  -0.00237945 
         800      71.6546     0.993476   0.00170947  -0.00238062 
         800      72.0225     0.993458   0.00171455  -0.00238172 
         800      72.3915     0.993358   0.00172044  -0.00238277 
         800      72.7613     0.993189   0.00172671  -0.00238376 
         800       73.132     0.993007   0.00173264  -0.00238472 
         800      73.5036      0.99293    0.0017373  -0.00238564 
         800      73.8764     0.993166   0.00173985  -0.00238652 
         800      74.2499     0.994051   0.00173993  -0.00238731 
         800      74.6244     0.996086   0.00173831  -0.00238793 
         800           75            1   0.00173785  -0.00238823 
