Variables = x, y, u, v, p

Zone, I=800, F=POINT
         200            0  4.18355e-18  9.37358e-28 -6.27772e-05 
         200     0.000117  5.29057e-05  2.66154e-12 -6.27771e-05 
         200     0.000469  0.000212075   4.2625e-11  -6.2777e-05 
         200     0.001056  0.000477508  2.15971e-10 -6.27768e-05 
         200     0.001879  0.000849658  6.83678e-10 -6.27765e-05 
         200     0.002936   0.00132762  1.66916e-09 -6.27761e-05 
         200     0.004228   0.00191185  3.46153e-09 -6.27756e-05 
         200     0.005755   0.00260235  6.41379e-09  -6.2775e-05 
         200     0.007518   0.00339956  1.09462e-08 -6.27743e-05 
         200     0.009515    0.0043026  1.75355e-08 -6.27735e-05 
         200     0.011746   0.00531146  2.67255e-08 -6.27726e-05 
         200     0.014214   0.00642749  3.91408e-08 -6.27717e-05 
         200     0.016915    0.0076489  5.54364e-08 -6.27706e-05 
         200     0.019853   0.00897748  7.63768e-08 -6.27695e-05 
         200     0.023023     0.010411   1.0273e-07 -6.27683e-05 
         200     0.026431    0.0119522  1.35415e-07 -6.27669e-05 
         200     0.030075       0.0136  1.75356e-07 -6.27655e-05 
         200      0.03395    0.0153524  2.23494e-07  -6.2764e-05 
         200     0.038063    0.0172124  2.80978e-07 -6.27624e-05 
         200     0.042408    0.0191774  3.48857e-07 -6.27607e-05 
         200     0.046991      0.02125  4.28422e-07 -6.27589e-05 
         200     0.051805    0.0234271  5.20812e-07 -6.27571e-05 
         200     0.056859    0.0257128  6.27531e-07 -6.27551e-05 
         200     0.062143    0.0281025  7.49764e-07  -6.2753e-05 
         200     0.067666    0.0306004   8.8918e-07 -6.27509e-05 
         200     0.073425     0.033205  1.04725e-06 -6.27486e-05 
         200     0.079413    0.0359132  1.22536e-06 -6.27463e-05 
         200     0.085642    0.0387304  1.42552e-06 -6.27438e-05 
         200       0.0921    0.0416512   1.6491e-06 -6.27413e-05 
         200     0.098799    0.0446811   1.8983e-06 -6.27387e-05 
         200     0.105727    0.0478145  2.17453e-06  -6.2736e-05 
         200     0.112896     0.051057  2.48022e-06 -6.27331e-05 
         200       0.1203    0.0544057  2.81713e-06 -6.27302e-05 
         200     0.127932    0.0578576    3.187e-06 -6.27272e-05 
         200     0.135806    0.0614189  3.59265e-06 -6.27241e-05 
         200     0.143909    0.0650838  4.03562e-06 -6.27209e-05 
         200     0.152253    0.0688576  4.51885e-06 -6.27176e-05 
         200     0.160825    0.0727345  5.04392e-06 -6.27142e-05 
         200     0.169639    0.0767208  5.61411e-06 -6.27108e-05 
         200     0.178688    0.0808132   6.2315e-06 -6.27072e-05 
         200     0.187965    0.0850087  6.89814e-06 -6.27035e-05 
         200     0.197484    0.0893134  7.61769e-06 -6.26997e-05 
         200      0.20723    0.0937205  8.39169e-06 -6.26958e-05 
         200      0.21722    0.0982378  9.22428e-06 -6.26919e-05 
         200     0.227436     0.102857  1.01168e-05 -6.26878e-05 
         200     0.237895     0.107586  1.10736e-05 -6.26836e-05 
         200     0.248581     0.112416  1.20963e-05 -6.26794e-05 
         200      0.25951     0.117357  1.31895e-05  -6.2675e-05 
         200     0.270675     0.122403  1.43555e-05 -6.26706e-05 
         200     0.282065      0.12755  1.55964e-05  -6.2666e-05 
         200       0.2937     0.132807  1.69177e-05 -6.26613e-05 
         200      0.30556     0.138166  1.83206e-05 -6.26565e-05 
         200     0.317665     0.143633  1.98108e-05 -6.26517e-05 
         200     0.329995     0.149201  2.13893e-05 -6.26467e-05 
         200     0.342569     0.154878  2.30619e-05 -6.26417e-05 
         200     0.355379      0.16066  2.48314e-05 -6.26365e-05 
         200     0.368414     0.166542  2.66998e-05 -6.26313e-05 
         200     0.381693     0.172532  2.86736e-05 -6.26259e-05 
         200     0.395198     0.178622  3.07541e-05 -6.26204e-05 
         200     0.408948      0.18482   3.2948e-05 -6.26149e-05 
         200     0.422921     0.191116  3.52559e-05 -6.26092e-05 
         200     0.437141      0.19752  3.76858e-05 -6.26034e-05 
         200     0.451585     0.204021  4.02376e-05 -6.25975e-05 
         200     0.466275      0.21063  4.29195e-05 -6.25916e-05 
         200       0.4812      0.21734  4.57336e-05 -6.25855e-05 
         200     0.496348     0.224146  4.86818e-05 -6.25794e-05 
         200     0.511744     0.231059  5.17732e-05 -6.25731e-05 
         200     0.527361     0.238065  5.50067e-05 -6.25667e-05 
         200     0.543227     0.245177  5.83927e-05 -6.25602e-05 
         200     0.559314     0.252381  6.19297e-05 -6.25536e-05 
         200      0.57565      0.25969  6.56284e-05 -6.25469e-05 
         200      0.59222     0.267096  6.94894e-05 -6.25401e-05 
         200     0.609012     0.274592  7.35125e-05 -6.25335e-05 
         200     0.626053     0.282189  7.77151e-05 -6.25265e-05 
         200     0.643315     0.289875  8.20887e-05 -6.25193e-05 
         200     0.660826     0.297661  8.66456e-05  -6.2512e-05 
         200     0.678557     0.305533  9.13833e-05 -6.25046e-05 
         200     0.696538     0.313502  9.63144e-05 -6.24971e-05 
         200     0.714754     0.321561   0.00010144 -6.24895e-05 
         200      0.73319     0.329703  0.000106759 -6.24819e-05 
         200     0.751876     0.337938  0.000112286 -6.24742e-05 
         200     0.770782     0.346252  0.000118016 -6.24664e-05 
         200     0.789937     0.354656   0.00012396 -6.24585e-05 
         200     0.809313     0.363136  0.000130116 -6.24505e-05 
         200     0.828939     0.371704  0.000136496 -6.24424e-05 
         200     0.848784     0.380342  0.000143093 -6.24342e-05 
         200      0.86888     0.389065  0.000149921 -6.24259e-05 
         200     0.889212     0.397862  0.000156981 -6.24174e-05 
         200     0.909761     0.406723  0.000164266 -6.24087e-05 
         200     0.930563     0.415662  0.000171795 -6.23999e-05 
         200     0.951582      0.42466  0.000179556  -6.2391e-05 
         200     0.972854      0.43373  0.000187566 -6.23818e-05 
         200     0.994343     0.442855  0.000195813 -6.23726e-05 
         200      1.01608     0.452045  0.000204312 -6.23632e-05 
         200      1.03806     0.461291  0.000213061 -6.23536e-05 
         200      1.06025     0.470583  0.000222052 -6.23439e-05 
         200       1.0827      0.47993    0.0002313 -6.23341e-05 
         200      1.10536     0.489317  0.000240793 -6.23242e-05 
         200      1.12828     0.498752  0.000250545 -6.23142e-05 
         200      1.15142     0.508219   0.00026054 -6.23041e-05 
         200       1.1748     0.517727  0.000270794 -6.22938e-05 
         200      1.19842     0.527265  0.000281299 -6.22834e-05 
         200      1.22226     0.536822  0.000292043 -6.22728e-05 
         200      1.24635     0.546408  0.000303042  -6.2262e-05 
         200      1.27066     0.556004  0.000314275 -6.22509e-05 
         200      1.29522      0.56562  0.000325759 -6.22396e-05 
         200         1.32     0.575237  0.000337471  -6.2228e-05 
         200      1.34503     0.584863  0.000349426 -6.22162e-05 
         200      1.37028      0.59448    0.0003616 -6.22041e-05 
         200      1.39578     0.604098  0.000374007 -6.21918e-05 
         200      1.42152     0.613702  0.000386632 -6.21795e-05 
         200      1.44747     0.623281  0.000399458 -6.21675e-05 
         200      1.47368     0.632845  0.000412496 -6.21561e-05 
         200       1.5001     0.642372  0.000425715  -6.2146e-05 
         200      1.52677     0.651871  0.000439156 -6.21247e-05 
         200      1.55367     0.661323  0.000452761 -6.21038e-05 
         200      1.58081     0.670737  0.000466538 -6.20865e-05 
         200       1.6082     0.680098  0.000480469 -6.20717e-05 
         200      1.63579     0.689393  0.000494536 -6.20587e-05 
         200      1.66364     0.698632  0.000508754 -6.20466e-05 
         200      1.69171     0.707794   0.00052309 -6.20348e-05 
         200      1.72003     0.716887  0.000537556 -6.20227e-05 
         200      1.74857     0.725891  0.000552118   -6.201e-05 
         200      1.77736     0.734815  0.000566788 -6.19964e-05 
         200      1.80636     0.743638  0.000581528 -6.19816e-05 
         200      1.83563     0.752368  0.000596349 -6.19656e-05 
         200      1.86512     0.760993  0.000611224 -6.19482e-05 
         200      1.89484       0.7695  0.000626128 -6.19295e-05 
         200       1.9248     0.777896  0.000641068 -6.19095e-05 
         200      1.95498     0.786164  0.000656006 -6.18884e-05 
         200      1.98542      0.79431   0.00067095 -6.18663e-05 
         200      2.01607     0.802316  0.000685861 -6.18433e-05 
         200      2.04698     0.810191  0.000700745 -6.18196e-05 
         200      2.07812     0.817922  0.000715576 -6.17954e-05 
         200      2.10947     0.825499  0.000730327 -6.17708e-05 
         200      2.14109      0.83293  0.000745004  -6.1746e-05 
         200      2.17291     0.840197  0.000759569 -6.17212e-05 
         200      2.20499      0.84731  0.000774029 -6.16965e-05 
         200      2.23728     0.854251  0.000788347 -6.16719e-05 
         200      2.26984      0.86103   0.00080253 -6.16476e-05 
         200      2.30263     0.867637  0.000816551 -6.16235e-05 
         200      2.33562     0.874063  0.000830386 -6.15996e-05 
         200      2.36888     0.880318  0.000844042 -6.15759e-05 
         200      2.40235     0.886387  0.000857484 -6.15523e-05 
         200      2.43608     0.892279  0.000870719 -6.15287e-05 
         200      2.47002     0.897984  0.000883714 -6.15049e-05 
         200      2.50421     0.903507  0.000896477 -6.14808e-05 
         200      2.53862     0.908841  0.000908974 -6.14563e-05 
         200      2.57329     0.913992  0.000921215  -6.1431e-05 
         200      2.60819     0.918957  0.000933177 -6.14048e-05 
         200       2.6433     0.923731  0.000944842 -6.13775e-05 
         200      2.67868     0.928322  0.000956217  -6.1349e-05 
         200      2.71426     0.932725  0.000967274 -6.13191e-05 
         200       2.7501     0.936948  0.000978024 -6.12877e-05 
         200      2.78615     0.940985  0.000988441 -6.12547e-05 
         200      2.82247     0.944845  0.000998534 -6.12201e-05 
         200      2.85902     0.948527   0.00100829  -6.1184e-05 
         200      2.89577      0.95203   0.00101769 -6.11466e-05 
         200      2.93279     0.955365   0.00102676 -6.11078e-05 
         200      2.97002     0.958527   0.00103546 -6.10682e-05 
         200       3.0075     0.961527   0.00104383 -6.10279e-05 
         200       3.0452     0.964363   0.00105183 -6.09873e-05 
         200      3.08316     0.967044   0.00105949  -6.0947e-05 
         200      3.12135     0.969572    0.0010668 -6.09072e-05 
         200      3.15975     0.971949   0.00107376 -6.08686e-05 
         200      3.19842     0.974185   0.00108039 -6.08314e-05 
         200      3.23728     0.976279   0.00108668  -6.0796e-05 
         200      3.27642     0.978242   0.00109265 -6.07625e-05 
         200      3.31576     0.980075    0.0010983 -6.07309e-05 
         200      3.35536     0.981785   0.00110364 -6.07008e-05 
         200      3.39517     0.983376   0.00110869 -6.06713e-05 
         200      3.43525     0.984855   0.00111345  -6.0641e-05 
         200      3.47555     0.986226   0.00111794 -6.06079e-05 
         200      3.51607     0.987494   0.00112214 -6.05689e-05 
         200      3.55685     0.988666   0.00112608   -6.052e-05 
         200      3.59783     0.989745   0.00112974 -6.04559e-05 
         200      3.63908     0.990737   0.00113312 -6.03694e-05 
         200      3.68053     0.991648    0.0011362 -6.02519e-05 
         200      3.72225     0.992482   0.00113896 -6.00919e-05 
         200      3.76421     0.993245   0.00114164 -5.99513e-05 
         200      3.80636      0.99394   0.00114434 -5.99551e-05 
         200      3.84879     0.994572   0.00114662 -5.99788e-05 
         200      3.89142     0.995146   0.00114865 -6.00167e-05 
         200      3.93431     0.995666   0.00115056 -6.00673e-05 
         200      3.97741     0.996136   0.00115243 -6.01328e-05 
         200      4.02077      0.99656   0.00115399 -6.00758e-05 
         200      4.06434     0.996941   0.00115539 -5.99807e-05 
         200      4.10817     0.997283   0.00115676 -5.99155e-05 
         200      4.15224     0.997589   0.00115805 -5.98673e-05 
         200      4.19651     0.997862   0.00115924 -5.98268e-05 
         200      4.24106     0.998106   0.00116032  -5.9788e-05 
         200       4.2858     0.998322   0.00116129 -5.97472e-05 
         200      4.33081     0.998514   0.00116214 -5.97025e-05 
         200      4.37602     0.998683   0.00116289 -5.96533e-05 
         200       4.4215     0.998833   0.00116355 -5.96001e-05 
         200      4.46721     0.998964   0.00116413  -5.9544e-05 
         200      4.51313     0.999079   0.00116463  -5.9486e-05 
         200      4.55931      0.99918   0.00116508 -5.94275e-05 
         200       4.6057     0.999268   0.00116547 -5.93695e-05 
         200      4.65235     0.999344   0.00116583 -5.93129e-05 
         200      4.69921      0.99941   0.00116615  -5.9258e-05 
         200      4.74633     0.999468   0.00116645 -5.92049e-05 
         200      4.79369     0.999517   0.00116673 -5.91533e-05 
         200      4.84125      0.99956   0.00116698 -5.91026e-05 
         200      4.88908     0.999596   0.00116722  -5.9052e-05 
         200      4.93711     0.999627   0.00116743 -5.90004e-05 
         200      4.98541     0.999654   0.00116762 -5.89464e-05 
         200      5.03391     0.999676    0.0011678 -5.88888e-05 
         200      5.08268     0.999696   0.00116797 -5.88261e-05 
         200      5.13165     0.999712   0.00116815 -5.87563e-05 
         200      5.18089     0.999726   0.00116828 -5.86804e-05 
         200      5.23037     0.999737   0.00116837 -5.86043e-05 
         200      5.28004     0.999747   0.00116852 -5.85376e-05 
         200      5.32999     0.999755   0.00116865  -5.8492e-05 
         200      5.38013     0.999762   0.00116874 -5.84718e-05 
         200      5.43055     0.999768   0.00116881 -5.84731e-05 
         200      5.48116     0.999773   0.00116885 -5.84853e-05 
         200      5.53204     0.999777   0.00116889 -5.84921e-05 
         200      5.58317      0.99978   0.00116894 -5.84752e-05 
         200      5.63448     0.999783     0.001169 -5.84177e-05 
         200      5.68607     0.999785   0.00116909 -5.83097e-05 
         200      5.73786     0.999787   0.00116922  -5.8155e-05 
         200      5.78992     0.999789   0.00116938 -5.79784e-05 
         200      5.84218      0.99979   0.00116953 -5.78365e-05 
         200      5.89471     0.999791   0.00116956 -5.78272e-05 
         200      5.94748     0.999793   0.00116924 -5.81042e-05 
         200      6.00044     0.999793    0.0011693 -5.80392e-05 
         200      6.05367     0.999794   0.00116977 -5.76774e-05 
         200       6.1071     0.999794   0.00117004 -5.74927e-05 
         200      6.16081     0.999794   0.00117017 -5.74258e-05 
         200      6.21471     0.999795    0.0011702 -5.74282e-05 
         200      6.26889     0.999795   0.00117016 -5.74617e-05 
         200      6.32326     0.999796   0.00117008 -5.74985e-05 
         200       6.3779     0.999796      0.00117 -5.75226e-05 
         200      6.43279     0.999797   0.00116997 -5.75309e-05 
         200      6.48786     0.999797   0.00117005 -5.75365e-05 
         200      6.54321     0.999797   0.00117018 -5.75018e-05 
         200      6.59876     0.999798   0.00117028 -5.73724e-05 
         200      6.65458     0.999798   0.00117042 -5.72644e-05 
         200      6.71059     0.999798   0.00117051 -5.71567e-05 
         200      6.76689     0.999798   0.00117055 -5.70362e-05 
         200      6.82341     0.999799    0.0011706 -5.68986e-05 
         200      6.88013     0.999799   0.00117068 -5.67475e-05 
         200      6.93713     0.999799   0.00117083 -5.65917e-05 
         200      6.99432       0.9998   0.00117102 -5.64434e-05 
         200      7.05178       0.9998   0.00117121 -5.63136e-05 
         200      7.10944       0.9998   0.00117134 -5.62105e-05 
         200      7.16738       0.9998   0.00117138 -5.61358e-05 
         200      7.22551     0.999801   0.00117132 -5.60843e-05 
         200      7.28391     0.999801   0.00117121 -5.60447e-05 
         200      7.34256     0.999802   0.00117114 -5.60029e-05 
         200      7.40139     0.999802   0.00117122 -5.59494e-05 
         200       7.4605     0.999802   0.00117145 -5.58905e-05 
         200       7.5198     0.999803   0.00117158 -5.58653e-05 
         200      7.57939     0.999803   0.00117124 -5.59063e-05 
         200      7.63916     0.999803   0.00117172  -5.5793e-05 
         200      7.69921     0.999803   0.00117196 -5.57146e-05 
         200       7.7595     0.999804   0.00117206  -5.5656e-05 
         200      7.81998     0.999804   0.00117209 -5.56063e-05 
         200      7.88073     0.999804   0.00117209 -5.55583e-05 
         200      7.94168     0.999805   0.00117209 -5.55077e-05 
         200      8.00291     0.999805   0.00117211 -5.54524e-05 
         200      8.06432     0.999805   0.00117215  -5.5392e-05 
         200      8.12602     0.999805   0.00117221 -5.53272e-05 
         200      8.18796     0.999806   0.00117228 -5.52592e-05 
         200      8.25008     0.999806   0.00117237 -5.51897e-05 
         200      8.31248     0.999806   0.00117246 -5.51202e-05 
         200      8.37507     0.999807   0.00117255  -5.5052e-05 
         200      8.43794     0.999807   0.00117263 -5.49856e-05 
         200        8.501     0.999808   0.00117271 -5.49215e-05 
         200      8.56434     0.999808   0.00117278 -5.48588e-05 
         200      8.62787     0.999808   0.00117285 -5.47966e-05 
         200      8.69169     0.999809   0.00117291  -5.4733e-05 
         200      8.75574     0.999809   0.00117298 -5.46657e-05 
         200      8.81997     0.999809   0.00117305 -5.45923e-05 
         200      8.88449      0.99981   0.00117313 -5.45101e-05 
         200      8.94919      0.99981   0.00117321 -5.44166e-05 
         200      9.01418      0.99981   0.00117329 -5.43098e-05 
         200      9.07935     0.999811   0.00117338 -5.41885e-05 
         200      9.14481     0.999811   0.00117346 -5.40523e-05 
         200      9.21051     0.999811   0.00117353 -5.39024e-05 
         200      9.27639     0.999811   0.00117358 -5.37417e-05 
         200      9.34255     0.999812   0.00117362 -5.35748e-05 
         200       9.4089     0.999812   0.00117365  -5.3409e-05 
         200      9.47553     0.999812   0.00117371 -5.32534e-05 
         200      9.54235     0.999812   0.00117382 -5.31203e-05 
         200      9.60945     0.999813   0.00117405 -5.30243e-05 
         200      9.67674     0.999813   0.00117452 -5.29827e-05 
         200      9.74432     0.999813   0.00117538 -5.30152e-05 
         200      9.81212     0.999814   0.00117518 -5.29014e-05 
         200      9.88012     0.999814    0.0011747 -5.27838e-05 
         200       9.9484     0.999814   0.00117443 -5.27582e-05 
         200      10.0169     0.999815   0.00117429 -5.28177e-05 
         200      10.0856     0.999815   0.00117419 -5.29398e-05 
         200      10.1545     0.999816   0.00117414 -5.30817e-05 
         200      10.2238     0.999816   0.00117422 -5.31754e-05 
         200      10.2932     0.999817   0.00117468   -5.312e-05 
         200      10.3628     0.999818   0.00117467 -5.29199e-05 
         200      10.4328     0.999818   0.00117486 -5.27086e-05 
         200      10.5029     0.999818   0.00117516 -5.25037e-05 
         200      10.5733     0.999818   0.00117544 -5.23178e-05 
         200      10.6438     0.999819    0.0011756   -5.216e-05 
         200      10.7147     0.999819   0.00117563 -5.20359e-05 
         200      10.7858     0.999819   0.00117554 -5.19493e-05 
         200      10.8571      0.99982   0.00117533 -5.19023e-05 
         200      10.9287      0.99982   0.00117502 -5.18964e-05 
         200      11.0004     0.999821    0.0011746 -5.19334e-05 
         200      11.0725     0.999822   0.00117486 -5.18078e-05 
         200      11.1447     0.999822   0.00117566 -5.14936e-05 
         200      11.2172     0.999822   0.00117622  -5.1201e-05 
         200      11.2899     0.999823    0.0011766 -5.09465e-05 
         200      11.3628     0.999823   0.00117684 -5.07375e-05 
         200      11.4361     0.999823   0.00117697 -5.05755e-05 
         200      11.5095     0.999824   0.00117703 -5.04571e-05 
         200      11.5831     0.999824   0.00117704  -5.0375e-05 
         200       11.657     0.999825   0.00117702 -5.03202e-05 
         200      11.7312     0.999825   0.00117696 -5.02825e-05 
         200      11.8055     0.999825   0.00117689 -5.02519e-05 
         200      11.8801     0.999826    0.0011768 -5.02189e-05 
         200       11.955     0.999826    0.0011767 -5.01758e-05 
         200        12.03     0.999827   0.00117661 -5.01168e-05 
         200      12.1053     0.999827   0.00117654 -5.00384e-05 
         200      12.1809     0.999828   0.00117652 -4.99397e-05 
         200      12.2567     0.999828   0.00117654 -4.98221e-05 
         200      12.3326     0.999829   0.00117665 -4.96897e-05 
         200      12.4089     0.999829   0.00117683  -4.9548e-05 
         200      12.4854      0.99983   0.00117709 -4.94044e-05 
         200      12.5621      0.99983   0.00117741 -4.92668e-05 
         200      12.6391     0.999831   0.00117775 -4.91426e-05 
         200      12.7162     0.999832   0.00117807 -4.90382e-05 
         200      12.7937     0.999832   0.00117832  -4.8957e-05 
         200      12.8713     0.999833   0.00117842 -4.88989e-05 
         200      12.9492     0.999833   0.00117835 -4.88575e-05 
         200      13.0273     0.999834   0.00117812 -4.88194e-05 
         200      13.1057     0.999834   0.00117784 -4.87614e-05 
         200      13.1843     0.999835   0.00117777 -4.86489e-05 
         200      13.2631     0.999835   0.00117842 -4.84335e-05 
         200      13.3422     0.999836    0.0011788 -4.82538e-05 
         200      13.4215     0.999836   0.00117825 -4.81214e-05 
         200       13.501     0.999836   0.00117819 -4.78822e-05 
         200      13.5807     0.999837    0.0011784 -4.75983e-05 
         200      13.6608     0.999838   0.00117871 -4.73135e-05 
         200       13.741     0.999839   0.00117902 -4.70578e-05 
         200      13.8215      0.99984   0.00117926 -4.68487e-05 
         200      13.9022     0.999841   0.00117941 -4.66936e-05 
         200      13.9831     0.999842   0.00117945 -4.65921e-05 
         200      14.0643     0.999843    0.0011794 -4.65376e-05 
         200      14.1457     0.999843   0.00117929 -4.65193e-05 
         200      14.2274     0.999844   0.00117915 -4.65237e-05 
         200      14.3092     0.999844   0.00117901 -4.65355e-05 
         200      14.3914     0.999845    0.0011789 -4.65396e-05 
         200      14.4738     0.999845   0.00117885 -4.65216e-05 
         200      14.5563     0.999845   0.00117886 -4.64693e-05 
         200      14.6392     0.999846   0.00117895 -4.63732e-05 
         200      14.7222     0.999846   0.00117911 -4.62276e-05 
         200      14.8055     0.999846   0.00117933 -4.60311e-05 
         200       14.889     0.999846   0.00117958 -4.57882e-05 
         200      14.9728     0.999846   0.00117985 -4.55085e-05 
         200      15.0568     0.999847   0.00118011 -4.52092e-05 
         200       15.141     0.999847   0.00118034 -4.49151e-05 
         200      15.2255     0.999847   0.00118054 -4.46586e-05 
         200      15.3102     0.999847   0.00118072 -4.44828e-05 
         200      15.3952     0.999847   0.00118089 -4.44405e-05 
         200      15.4803     0.999848    0.0011812 -4.42302e-05 
         200      15.5657     0.999849    0.0011814 -4.40328e-05 
         200      15.6514     0.999849   0.00118145 -4.39028e-05 
         200      15.7372      0.99985   0.00118134 -4.38404e-05 
         200      15.8234     0.999851   0.00118107 -4.38389e-05 
         200      15.9097     0.999851   0.00118066 -4.38856e-05 
         200      15.9963     0.999852   0.00118017 -4.39627e-05 
         200      16.0831     0.999853   0.00117971  -4.4049e-05 
         200      16.1702     0.999853   0.00117939 -4.41219e-05 
         200      16.2574     0.999854   0.00117935 -4.41602e-05 
         200       16.345     0.999854   0.00117973 -4.41478e-05 
         200      16.4328     0.999855   0.00118059 -4.40773e-05 
         200      16.5207     0.999855   0.00118186 -4.39555e-05 
         200       16.609     0.999856   0.00118323 -4.38089e-05 
         200      16.6974     0.999856   0.00118405 -4.36912e-05 
         200      16.7861     0.999856   0.00118316 -4.36905e-05 
         200       16.875     0.999856   0.00117874 -4.39364e-05 
         200      16.9642     0.999857   0.00118197 -4.39688e-05 
         200      17.0537     0.999858   0.00118413 -4.38461e-05 
         200      17.1433     0.999859    0.0011853 -4.36111e-05 
         200      17.2332      0.99986   0.00118566 -4.33005e-05 
         200      17.3232     0.999861   0.00118538 -4.29459e-05 
         200      17.4136     0.999862   0.00118467 -4.25725e-05 
         200      17.5041     0.999862   0.00118373 -4.22015e-05 
         200       17.595     0.999863   0.00118274 -4.18477e-05 
         200      17.6861     0.999863   0.00118185 -4.15219e-05 
         200      17.7773     0.999863   0.00118116   -4.123e-05 
         200      17.8689     0.999863   0.00118075 -4.09726e-05 
         200      17.9606     0.999864   0.00118065 -4.07462e-05 
         200      18.0526     0.999864   0.00118086 -4.05421e-05 
         200      18.1448     0.999864   0.00118135 -4.03473e-05 
         200      18.2373     0.999865   0.00118206  -4.0143e-05 
         200      18.3299     0.999865   0.00118293 -3.99059e-05 
         200      18.4229     0.999866   0.00118389 -3.96061e-05 
         200      18.5161     0.999867   0.00118495 -3.92766e-05 
         200      18.6094     0.999867   0.00118599 -3.91647e-05 
         200      18.7031     0.999868    0.0011866 -3.90816e-05 
         200      18.7969     0.999869   0.00118678 -3.90221e-05 
         200       18.891     0.999869   0.00118658 -3.89783e-05 
         200      18.9853     0.999869   0.00118606 -3.89398e-05 
         200      19.0799      0.99987    0.0011853 -3.88947e-05 
         200      19.1748      0.99987   0.00118441 -3.88309e-05 
         200      19.2698      0.99987   0.00118351 -3.87371e-05 
         200      19.3651      0.99987   0.00118272 -3.86038e-05 
         200      19.4606     0.999871   0.00118216 -3.84251e-05 
         200      19.5563     0.999871   0.00118193 -3.81992e-05 
         200      19.6523     0.999871   0.00118209 -3.79302e-05 
         200      19.7485     0.999872   0.00118268 -3.76272e-05 
         200      19.8449     0.999873   0.00118365 -3.73064e-05 
         200      19.9417     0.999874   0.00118493 -3.69882e-05 
         200      20.0386     0.999875   0.00118638 -3.66982e-05 
         200      20.1357     0.999876    0.0011878 -3.64643e-05 
         200      20.2331     0.999877   0.00118895 -3.63128e-05 
         200      20.3307     0.999879   0.00118961 -3.62656e-05 
         200      20.4286      0.99988   0.00118956 -3.63337e-05 
         200      20.5267     0.999881   0.00118873 -3.65103e-05 
         200       20.625     0.999881   0.00118719 -3.67626e-05 
         200      20.7236     0.999882   0.00118534 -3.70206e-05 
         200      20.8224     0.999882   0.00118401 -3.71642e-05 
         200      20.9215     0.999882   0.00118465 -3.70091e-05 
         200      21.0207     0.999883   0.00118957  -3.6289e-05 
         200      21.1202     0.999886   0.00118858  -3.6472e-05 
         200      21.2199     0.999888   0.00118338 -3.68677e-05 
         200      21.3199     0.999888   0.00118119 -3.65466e-05 
         200      21.4202     0.999888   0.00118096 -3.58144e-05 
         200      21.5206     0.999888   0.00118188 -3.49062e-05 
         200      21.6213     0.999888   0.00118336 -3.39918e-05 
         200      21.7222     0.999887   0.00118499 -3.31897e-05 
         200      21.8234     0.999887   0.00118649 -3.25699e-05 
         200      21.9247     0.999888   0.00118772 -3.21669e-05 
         200      22.0264     0.999889   0.00118861 -3.19832e-05 
         200      22.1282      0.99989   0.00118915 -3.19985e-05 
         200      22.2303     0.999891   0.00118936 -3.21756e-05 
         200      22.3327     0.999892   0.00118931 -3.24661e-05 
         200      22.4352     0.999893   0.00118903 -3.28158e-05 
         200       22.538     0.999895   0.00118858  -3.3171e-05 
         200       22.641     0.999896   0.00118796 -3.34813e-05 
         200      22.7443     0.999897   0.00118716 -3.37053e-05 
         200      22.8477     0.999897   0.00118614 -3.38129e-05 
         200      22.9515     0.999898   0.00118481 -3.37895e-05 
         200      23.0555     0.999898   0.00118304 -3.36382e-05 
         200      23.1597     0.999898   0.00118122 -3.33695e-05 
         200      23.2642     0.999897   0.00118338 -3.28945e-05 
         200      23.3688     0.999896   0.00118493 -3.23408e-05 
         200      23.4737     0.999896   0.00118621 -3.17383e-05 
         200      23.5788     0.999895   0.00118741 -3.11195e-05 
         200      23.6843     0.999895   0.00118861 -3.05135e-05 
         200      23.7899     0.999894    0.0011898  -2.9948e-05 
         200      23.8957     0.999894    0.0011909 -2.94461e-05 
         200      24.0018     0.999894   0.00119183 -2.90238e-05 