Variables = x, y, u, v, p

Zone, I=800, F=POINT
         550            0           -0           -0 -2.66276e-05 
         550     0.000117  4.12451e-05  1.36218e-12 -2.66275e-05 
         550     0.000469  0.000165333  2.18888e-11 -2.66275e-05 
         550     0.001056  0.000372263   1.1097e-10 -2.66274e-05 
         550     0.001879  0.000662389  3.51345e-10 -2.66272e-05 
         550     0.002936     0.001035  8.57813e-10  -2.6627e-05 
         550     0.004228   0.00149046   1.7789e-09 -2.66267e-05 
         550     0.005755   0.00202876  3.29588e-09 -2.66264e-05 
         550     0.007518   0.00265026  5.62452e-09 -2.66261e-05 
         550     0.009515   0.00335425  9.00946e-09 -2.66257e-05 
         550     0.011746   0.00414072  1.37297e-08 -2.66252e-05 
         550     0.014214   0.00501075  2.01054e-08 -2.66247e-05 
         550     0.016915   0.00596291  2.84725e-08 -2.66242e-05 
         550     0.019853   0.00699862  3.92223e-08 -2.66236e-05 
         550     0.023023   0.00811612  5.27479e-08  -2.6623e-05 
         550     0.026431   0.00931751  6.95198e-08 -2.66223e-05 
         550     0.030075    0.0106021  9.00104e-08 -2.66216e-05 
         550      0.03395    0.0119681  1.14699e-07 -2.66208e-05 
         550     0.038063     0.013418  1.44174e-07   -2.662e-05 
         550     0.042408    0.0149498  1.78969e-07 -2.66191e-05 
         550     0.046991    0.0165654  2.19741e-07 -2.66182e-05 
         550     0.051805    0.0182624   2.6707e-07 -2.66173e-05 
         550     0.056859     0.020044  3.21721e-07 -2.66162e-05 
         550     0.062143    0.0219068  3.84295e-07 -2.66152e-05 
         550     0.067666    0.0238537   4.5564e-07 -2.66141e-05 
         550     0.073425    0.0258839  5.36498e-07  -2.6613e-05 
         550     0.079413    0.0279947  6.27571e-07 -2.66118e-05 
         550     0.085642    0.0301906  7.29882e-07 -2.66105e-05 
         550       0.0921    0.0324671  8.44107e-07 -2.66092e-05 
         550     0.098799    0.0348286  9.71365e-07 -2.66079e-05 
         550     0.105727    0.0372708  1.11237e-06 -2.66065e-05 
         550     0.112896    0.0397979  1.26833e-06 -2.66051e-05 
         550       0.1203    0.0424079  1.44014e-06 -2.66036e-05 
         550     0.127932    0.0450981  1.62866e-06 -2.66021e-05 
         550     0.135806    0.0478737   1.8353e-06 -2.66005e-05 
         550     0.143909    0.0507299  2.06083e-06 -2.65989e-05 
         550     0.152253    0.0536711  2.30672e-06 -2.65973e-05 
         550     0.160825    0.0566925  2.57376e-06 -2.65956e-05 
         550     0.169639    0.0597992  2.86357e-06 -2.65938e-05 
         550     0.178688    0.0629886  3.17719e-06  -2.6592e-05 
         550     0.187965    0.0662583  3.51561e-06 -2.65902e-05 
         550     0.197484    0.0696132  3.88065e-06 -2.65883e-05 
         550      0.20723    0.0730479  4.27306e-06 -2.65863e-05 
         550      0.21722    0.0765685   4.6949e-06 -2.65843e-05 
         550     0.227436    0.0801686  5.14679e-06 -2.65823e-05 
         550     0.237895    0.0838541  5.63092e-06 -2.65802e-05 
         550     0.248581    0.0876194    6.148e-06 -2.65781e-05 
         550      0.25951      0.09147   6.7003e-06 -2.65759e-05 
         550     0.270675    0.0954036  7.28901e-06 -2.65737e-05 
         550     0.282065     0.099416  7.91509e-06 -2.65714e-05 
         550       0.2937     0.103514  8.58122e-06 -2.65691e-05 
         550      0.30556     0.107692  9.28787e-06 -2.65667e-05 
         550     0.317665     0.111955  1.00379e-05 -2.65643e-05 
         550     0.329995     0.116296  1.08317e-05 -2.65618e-05 
         550     0.342569     0.120723  1.16722e-05 -2.65593e-05 
         550     0.355379     0.125233  1.25607e-05 -2.65568e-05 
         550     0.368414     0.129821  1.34981e-05 -2.65542e-05 
         550     0.381693     0.134494  1.44876e-05 -2.65515e-05 
         550     0.395198     0.139245  1.55297e-05 -2.65488e-05 
         550     0.408948     0.144082  1.66277e-05 -2.65461e-05 
         550     0.422921     0.148996  1.77817e-05 -2.65433e-05 
         550     0.437141     0.153996  1.89955e-05 -2.65404e-05 
         550     0.451585     0.159073  2.02693e-05 -2.65375e-05 
         550     0.466275     0.164235  2.16068e-05 -2.65346e-05 
         550       0.4812     0.169478  2.30091e-05 -2.65316e-05 
         550     0.496348     0.174798   2.4477e-05 -2.65286e-05 
         550     0.511744     0.180202   2.6015e-05 -2.65255e-05 
         550     0.527361     0.185682  2.76225e-05 -2.65223e-05 
         550     0.543227     0.191247  2.93043e-05 -2.65192e-05 
         550     0.559314     0.196886  3.10596e-05 -2.65159e-05 
         550      0.57565      0.20261  3.28935e-05 -2.65126e-05 
         550      0.59222     0.208413  3.48067e-05 -2.65093e-05 
         550     0.609012     0.214291  3.67997e-05 -2.65059e-05 
         550     0.626053     0.220251  3.88777e-05 -2.65024e-05 
         550     0.643315     0.226285  4.10398e-05  -2.6499e-05 
         550     0.660826     0.232402  4.32917e-05 -2.64954e-05 
         550     0.678557     0.238591  4.56317e-05 -2.64918e-05 
         550     0.696538     0.244861   4.8066e-05 -2.64881e-05 
         550     0.714754     0.251209  5.05948e-05 -2.64844e-05 
         550      0.73319     0.257627  5.32181e-05 -2.64807e-05 
         550     0.751876     0.264125  5.59425e-05 -2.64768e-05 
         550     0.770782     0.270693  5.87656e-05  -2.6473e-05 
         550     0.789937      0.27734  6.16942e-05  -2.6469e-05 
         550     0.809313     0.284056  6.47261e-05 -2.64651e-05 
         550     0.828939      0.29085  6.78679e-05  -2.6461e-05 
         550     0.848784     0.297711   7.1117e-05 -2.64569e-05 
         550      0.86888     0.304648  7.44808e-05 -2.64527e-05 
         550     0.889212     0.311656  7.79588e-05 -2.64485e-05 
         550     0.909761     0.318727    8.155e-05 -2.64442e-05 
         550     0.930563     0.325874  8.52626e-05 -2.64399e-05 
         550     0.951582     0.333082  8.90923e-05 -2.64355e-05 
         550     0.972854     0.340363  9.30476e-05  -2.6431e-05 
         550     0.994343     0.347703  9.71239e-05 -2.64264e-05 
         550      1.01608     0.355114   0.00010133 -2.64218e-05 
         550      1.03806     0.362589  0.000105664 -2.64171e-05 
         550      1.06025     0.370119  0.000110124 -2.64124e-05 
         550       1.0827     0.377716   0.00011472 -2.64075e-05 
         550      1.10536     0.385367  0.000119446 -2.64027e-05 
         550      1.12828     0.393082   0.00012431 -2.63977e-05 
         550      1.15142     0.400847  0.000129307 -2.63926e-05 
         550       1.1748     0.408673  0.000134446 -2.63875e-05 
         550      1.19842     0.416553  0.000139725 -2.63823e-05 
         550      1.22226     0.424478   0.00014514  -2.6377e-05 
         550      1.24635     0.432459  0.000150702 -2.63717e-05 
         550      1.27066     0.440482  0.000156402 -2.63662e-05 
         550      1.29522     0.448557   0.00016225 -2.63607e-05 
         550         1.32      0.45667  0.000168239  -2.6355e-05 
         550      1.34503     0.464831  0.000174378 -2.63493e-05 
         550      1.37028     0.473025  0.000180659 -2.63435e-05 
         550      1.39578     0.481263  0.000187091 -2.63375e-05 
         550      1.42152     0.489536  0.000193669 -2.63315e-05 
         550      1.44747     0.497835   0.00020039 -2.63254e-05 
         550      1.47368     0.506172  0.000207264 -2.63191e-05 
         550       1.5001     0.514529   0.00021428 -2.63128e-05 
         550      1.52677     0.522917  0.000221445 -2.63064e-05 
         550      1.55367     0.531321   0.00022875 -2.62999e-05 
         550      1.58081     0.539751  0.000236209 -2.62932e-05 
         550       1.6082     0.548197  0.000243812 -2.62864e-05 
         550      1.63579      0.55665  0.000251553 -2.62795e-05 
         550      1.66364      0.56512  0.000259442 -2.62724e-05 
         550      1.69171      0.57359  0.000267465 -2.62652e-05 
         550      1.72003      0.58207  0.000275631 -2.62579e-05 
         550      1.74857     0.590544  0.000283927 -2.62504e-05 
         550      1.77736     0.599021  0.000292364 -2.62428e-05 
         550      1.80636     0.607485  0.000300924 -2.62351e-05 
         550      1.83563     0.615945  0.000309619 -2.62272e-05 
         550      1.86512     0.624391   0.00031844 -2.62191e-05 
         550      1.89484     0.632814  0.000327376 -2.62109e-05 
         550       1.9248     0.641221  0.000336437 -2.62026e-05 
         550      1.95498     0.649596  0.000345606 -2.61941e-05 
         550      1.98542     0.657948  0.000354893 -2.61855e-05 
         550      2.01607     0.666261  0.000364279 -2.61766e-05 
         550      2.04698     0.674543  0.000373774 -2.61676e-05 
         550      2.07812     0.682784  0.000383366 -2.61585e-05 
         550      2.10947     0.690973  0.000393043 -2.61491e-05 
         550      2.14109     0.699119  0.000402814 -2.61396e-05 
         550      2.17291     0.707204  0.000412657 -2.61299e-05 
         550      2.20499     0.715239  0.000422583   -2.612e-05 
         550      2.23728     0.723205  0.000432569 -2.61098e-05 
         550      2.26984     0.731111  0.000442625 -2.60995e-05 
         550      2.30263     0.738946  0.000452736  -2.6089e-05 
         550      2.33562     0.746702  0.000462887 -2.60782e-05 
         550      2.36888     0.754384  0.000473086 -2.60672e-05 
         550      2.40235     0.761978   0.00048331  -2.6056e-05 
         550      2.43608     0.769492  0.000493567 -2.60446e-05 
         550      2.47002     0.776908  0.000503834 -2.60329e-05 
         550      2.50421     0.784237  0.000514118 -2.60211e-05 
         550      2.53862      0.79146  0.000524395 -2.60089e-05 
         550      2.57329     0.798588  0.000534673 -2.59966e-05 
         550      2.60819     0.805609  0.000544935  -2.5984e-05 
         550       2.6433     0.812516  0.000555165 -2.59712e-05 
         550      2.67868     0.819315   0.00056537 -2.59581e-05 
         550      2.71426     0.825992  0.000575526 -2.59448e-05 
         550       2.7501     0.832556   0.00058564 -2.59313e-05 
         550      2.78615     0.838992  0.000595688 -2.59175e-05 
         550      2.82247     0.845307  0.000605676 -2.59035e-05 
         550      2.85902     0.851494  0.000615589 -2.58892e-05 
         550      2.89577     0.857546   0.00062541 -2.58748e-05 
         550      2.93279     0.863469  0.000635146   -2.586e-05 
         550      2.97002     0.869253  0.000644773  -2.5845e-05 
         550       3.0075     0.874903  0.000654299 -2.58298e-05 
         550       3.0452      0.88041    0.0006637 -2.58143e-05 
         550      3.08316     0.885781  0.000672983 -2.57986e-05 
         550      3.12135      0.89101  0.000682133 -2.57826e-05 
         550      3.15975      0.89609  0.000691135 -2.57663e-05 
         550      3.19842     0.901031  0.000699995 -2.57497e-05 
         550      3.23728     0.905823  0.000708693 -2.57328e-05 
         550      3.27642     0.910473  0.000717235 -2.57156e-05 
         550      3.31576     0.914973    0.0007256 -2.56981e-05 
         550      3.35536     0.919332  0.000733797 -2.56802e-05 
         550      3.39517     0.923541  0.000741805 -2.56618e-05 
         550      3.43525     0.927608  0.000749633 -2.56431e-05 
         550      3.47555     0.931531  0.000757269 -2.56238e-05 
         550      3.51607     0.935306  0.000764703 -2.56041e-05 
         550      3.55685     0.938942  0.000771945 -2.55837e-05 
         550      3.59783     0.942434   0.00077898 -2.55628e-05 
         550      3.63908     0.945789   0.00078582 -2.55411e-05 
         550      3.68053     0.949003  0.000792455 -2.55186e-05 
         550      3.72225     0.952083  0.000798899 -2.54953e-05 
         550      3.76421     0.955029  0.000805129  -2.5473e-05 
         550      3.80636     0.957841  0.000811109  -2.5454e-05 
         550      3.84879     0.960527  0.000816892 -2.54345e-05 
         550      3.89142     0.963083  0.000822465 -2.54147e-05 
         550      3.93431     0.965517  0.000827836 -2.53947e-05 
         550      3.97741     0.967829  0.000832995 -2.53745e-05 
         550      4.02077     0.970024  0.000837951 -2.53542e-05 
         550      4.06434     0.972103  0.000842695 -2.53339e-05 
         550      4.10817     0.974072  0.000847238 -2.53134e-05 
         550      4.15224     0.975932  0.000851577 -2.52929e-05 
         550      4.19651     0.977687  0.000855711 -2.52723e-05 
         550      4.24106     0.979342   0.00085965 -2.52515e-05 
         550       4.2858     0.980898  0.000863391 -2.52307e-05 
         550      4.33081      0.98236  0.000866943 -2.52096e-05 
         550      4.37602     0.983732  0.000870307 -2.51884e-05 
         550       4.4215     0.985018  0.000873492 -2.51669e-05 
         550      4.46721      0.98622    0.0008765 -2.51452e-05 
         550      4.51313     0.987342  0.000879334 -2.51233e-05 
         550      4.55931     0.988389  0.000882004  -2.5101e-05 
         550       4.6057     0.989363  0.000884513 -2.50785e-05 
         550      4.65235     0.990269  0.000886869 -2.50556e-05 
         550      4.69921     0.991108  0.000889076 -2.50325e-05 
         550      4.74633     0.991887  0.000891143  -2.5009e-05 
         550      4.79369     0.992607  0.000893073 -2.49853e-05 
         550      4.84125     0.993271  0.000894873 -2.49612e-05 
         550      4.88908     0.993883   0.00089655 -2.49369e-05 
         550      4.93711     0.994447  0.000898109 -2.49123e-05 
         550      4.98541     0.994964  0.000899557 -2.48875e-05 
         550      5.03391     0.995438  0.000900898 -2.48624e-05 
         550      5.08268     0.995873  0.000902141  -2.4837e-05 
         550      5.13165     0.996269  0.000903287 -2.48115e-05 
         550      5.18089     0.996631  0.000904345 -2.47856e-05 
         550      5.23037      0.99696  0.000905318 -2.47595e-05 
         550      5.28004     0.997259  0.000906211 -2.47332e-05 
         550      5.32999      0.99753   0.00090703 -2.47066e-05 
         550      5.38013     0.997776  0.000907777 -2.46798e-05 
         550      5.43055     0.997997  0.000908458 -2.46527e-05 
         550      5.48116     0.998197  0.000909076 -2.46255e-05 
         550      5.53204     0.998377  0.000909635 -2.45981e-05 
         550      5.58317     0.998539  0.000910138 -2.45706e-05 
         550      5.63448     0.998683  0.000910587 -2.45432e-05 
         550      5.68607     0.998813  0.000910985 -2.45161e-05 
         550      5.73786     0.998929  0.000911335 -2.44894e-05 
         550      5.78992     0.999032  0.000911636 -2.44635e-05 
         550      5.84218     0.999123   0.00091195 -2.44359e-05 
         550      5.89471     0.999205   0.00091224  -2.4408e-05 
         550      5.94748     0.999276  0.000912493 -2.43804e-05 
         550      6.00044      0.99934  0.000912713 -2.43529e-05 
         550      6.05367     0.999396  0.000912904 -2.43251e-05 
         550       6.1071     0.999445  0.000913071  -2.4297e-05 
         550      6.16081     0.999489  0.000913218 -2.42682e-05 
         550      6.21471     0.999526  0.000913348 -2.42388e-05 
         550      6.26889      0.99956  0.000913465 -2.42089e-05 
         550      6.32326     0.999589  0.000913571 -2.41785e-05 
         550       6.3779     0.999614  0.000913667 -2.41479e-05 
         550      6.43279     0.999636  0.000913751 -2.41175e-05 
         550      6.48786     0.999655   0.00091382  -2.4088e-05 
         550      6.54321     0.999671  0.000913865 -2.40602e-05 
         550      6.59876     0.999685  0.000913877  -2.4035e-05 
         550      6.65458     0.999698  0.000913884 -2.40138e-05 
         550      6.71059     0.999708  0.000913979 -2.39957e-05 
         550      6.76689     0.999717  0.000914028 -2.39782e-05 
         550      6.82341     0.999725  0.000914051 -2.39597e-05 
         550      6.88013     0.999732  0.000914062  -2.3939e-05 
         550      6.93713     0.999737  0.000914069 -2.39154e-05 
         550      6.99432     0.999742  0.000914077 -2.38884e-05 
         550      7.05178     0.999746   0.00091409 -2.38576e-05 
         550      7.10944      0.99975  0.000914108 -2.38228e-05 
         550      7.16738     0.999753  0.000914133 -2.37838e-05 
         550      7.22551     0.999756  0.000914168 -2.37405e-05 
         550      7.28391     0.999758  0.000914215 -2.36927e-05 
         550      7.34256      0.99976  0.000914205  -2.3671e-05 
         550      7.40139     0.999761  0.000914192 -2.36497e-05 
         550       7.4605     0.999763  0.000914188  -2.3623e-05 
         550       7.5198     0.999764  0.000914188 -2.35924e-05 
         550      7.57939     0.999765   0.00091419 -2.35588e-05 
         550      7.63916     0.999766  0.000914192 -2.35233e-05 
         550      7.69921     0.999767  0.000914194 -2.34866e-05 
         550       7.7595     0.999768  0.000914194 -2.34496e-05 
         550      7.81998     0.999768  0.000914193 -2.34128e-05 
         550      7.88073     0.999769  0.000914192 -2.33766e-05 
         550      7.94168      0.99977  0.000914191 -2.33414e-05 
         550      8.00291      0.99977  0.000914191 -2.33074e-05 
         550      8.06432     0.999771  0.000914193 -2.32746e-05 
         550      8.12602     0.999771  0.000914197 -2.32431e-05 
         550      8.18796     0.999772  0.000914203 -2.32128e-05 
         550      8.25008     0.999772  0.000914211 -2.31835e-05 
         550      8.31248     0.999772   0.00091422 -2.31549e-05 
         550      8.37507     0.999773  0.000914229 -2.31268e-05 
         550      8.43794     0.999773  0.000914237 -2.30989e-05 
         550        8.501     0.999774  0.000914244 -2.30708e-05 
         550      8.56434     0.999774  0.000914248 -2.30423e-05 
         550      8.62787     0.999774  0.000914248  -2.3013e-05 
         550      8.69169     0.999775  0.000914245 -2.29826e-05 
         550      8.75574     0.999775  0.000914238  -2.2951e-05 
         550      8.81997     0.999776  0.000914229 -2.29181e-05 
         550      8.88449     0.999776  0.000914219 -2.28838e-05 
         550      8.94919     0.999776  0.000914211 -2.28483e-05 
         550      9.01418     0.999777  0.000914206 -2.28116e-05 
         550      9.07935     0.999777  0.000914207 -2.27742e-05 
         550      9.14481     0.999777  0.000914215 -2.27365e-05 
         550      9.21051     0.999778  0.000914228 -2.26993e-05 
         550      9.27639     0.999778  0.000914241 -2.26632e-05 
         550      9.34255     0.999778  0.000914244 -2.26294e-05 
         550       9.4089     0.999779  0.000914216 -2.25988e-05 
         550      9.47553     0.999779  0.000914222 -2.25631e-05 
         550      9.54235      0.99978  0.000914224 -2.25303e-05 
         550      9.60945      0.99978  0.000914224 -2.24984e-05 
         550      9.67674     0.999781  0.000914224 -2.24661e-05 
         550      9.74432     0.999781  0.000914223 -2.24326e-05 
         550      9.81212     0.999781  0.000914222 -2.23977e-05 
         550      9.88012     0.999782  0.000914221 -2.23613e-05 
         550       9.9484     0.999782   0.00091422 -2.23236e-05 
         550      10.0169     0.999783  0.000914218 -2.22853e-05 
         550      10.0856     0.999783  0.000914217 -2.22467e-05 
         550      10.1545     0.999783  0.000914217 -2.22085e-05 
         550      10.2238     0.999784  0.000914217 -2.21712e-05 
         550      10.2932     0.999784  0.000914218 -2.21352e-05 
         550      10.3628     0.999785   0.00091422 -2.21005e-05 
         550      10.4328     0.999785  0.000914223 -2.20672e-05 
         550      10.5029     0.999786  0.000914227  -2.2035e-05 
         550      10.5733     0.999786  0.000914231 -2.20033e-05 
         550      10.6438     0.999786  0.000914235 -2.19715e-05 
         550      10.7147     0.999787  0.000914238 -2.19386e-05 
         550      10.7858     0.999787  0.000914241 -2.19038e-05 
         550      10.8571     0.999788  0.000914242 -2.18663e-05 
         550      10.9287     0.999788  0.000914241 -2.18257e-05 
         550      11.0004     0.999789  0.000914239 -2.17821e-05 
         550      11.0725     0.999789  0.000914236 -2.17364e-05 
         550      11.1447      0.99979  0.000914231  -2.1691e-05 
         550      11.2172      0.99979  0.000914225 -2.16499e-05 
         550      11.2899     0.999791  0.000914217 -2.16192e-05 
         550      11.3628     0.999791  0.000914205 -2.16079e-05 
         550      11.4361     0.999792  0.000914201 -2.15708e-05 
         550      11.5095     0.999792  0.000914209  -2.1509e-05 
         550      11.5831     0.999793   0.00091422 -2.14589e-05 
         550       11.657     0.999793   0.00091423 -2.14178e-05 
         550      11.7312     0.999794  0.000914239 -2.13828e-05 
         550      11.8055     0.999794  0.000914244 -2.13518e-05 
         550      11.8801     0.999795  0.000914246  -2.1323e-05 
         550       11.955     0.999795  0.000914246 -2.12946e-05 
         550        12.03     0.999796  0.000914244 -2.12657e-05 
         550      12.1053     0.999796   0.00091424 -2.12351e-05 
         550      12.1809     0.999797  0.000914235 -2.12022e-05 
         550      12.2567     0.999797  0.000914231 -2.11666e-05 
         550      12.3326     0.999798  0.000914227 -2.11282e-05 
         550      12.4089     0.999799  0.000914225 -2.10868e-05 
         550      12.4854     0.999799  0.000914223 -2.10426e-05 
         550      12.5621       0.9998  0.000914224 -2.09961e-05 
         550      12.6391       0.9998  0.000914226 -2.09474e-05 
         550      12.7162     0.999801  0.000914232 -2.08971e-05 
         550      12.7937     0.999802   0.00091424 -2.08454e-05 
         550      12.8713     0.999802  0.000914254 -2.07928e-05 
         550      12.9492     0.999803  0.000914273 -2.07395e-05 
         550      13.0273     0.999803  0.000914299 -2.06856e-05 
         550      13.1057     0.999804  0.000914334 -2.06308e-05 
         550      13.1843     0.999804  0.000914299 -2.06042e-05 
         550      13.2631     0.999805  0.000914282 -2.05753e-05 
         550      13.3422     0.999806  0.000914274 -2.05438e-05 
         550      13.4215     0.999807  0.000914269   -2.051e-05 
         550       13.501     0.999807  0.000914265 -2.04738e-05 
         550      13.5807     0.999808  0.000914258 -2.04355e-05 
         550      13.6608     0.999809  0.000914249 -2.03953e-05 
         550       13.741     0.999809  0.000914238 -2.03534e-05 
         550      13.8215      0.99981  0.000914225 -2.03101e-05 
         550      13.9022      0.99981  0.000914213 -2.02657e-05 
         550      13.9831     0.999811  0.000914201 -2.02203e-05 
         550      14.0643     0.999812  0.000914191 -2.01743e-05 
         550      14.1457     0.999812  0.000914184  -2.0128e-05 
         550      14.2274     0.999813  0.000914181 -2.00815e-05 
         550      14.3092     0.999814  0.000914182 -2.00352e-05 
         550      14.3914     0.999814  0.000914186 -1.99891e-05 
         550      14.4738     0.999815  0.000914194 -1.99436e-05 
         550      14.5563     0.999815  0.000914205 -1.98986e-05 
         550      14.6392     0.999816  0.000914218 -1.98544e-05 
         550      14.7222     0.999817  0.000914232  -1.9811e-05 
         550      14.8055     0.999817  0.000914247 -1.97685e-05 
         550       14.889     0.999818   0.00091426 -1.97268e-05 
         550      14.9728     0.999818  0.000914271 -1.96859e-05 
         550      15.0568     0.999819  0.000914279 -1.96457e-05 
         550       15.141      0.99982  0.000914284 -1.96062e-05 
         550      15.2255      0.99982  0.000914285 -1.95671e-05 
         550      15.3102     0.999821  0.000914282 -1.95284e-05 
         550      15.3952     0.999821  0.000914275 -1.94897e-05 
         550      15.4803     0.999822  0.000914265  -1.9451e-05 
         550      15.5657     0.999822  0.000914253 -1.94119e-05 
         550      15.6514     0.999823  0.000914239 -1.93723e-05 
         550      15.7372     0.999823  0.000914225 -1.93318e-05 
         550      15.8234     0.999824  0.000914213 -1.92903e-05 
         550      15.9097     0.999824  0.000914203 -1.92475e-05 
         550      15.9963     0.999825  0.000914198 -1.92032e-05 
         550      16.0831     0.999825  0.000914198 -1.91573e-05 
         550      16.1702     0.999826  0.000914204 -1.91097e-05 
         550      16.2574     0.999826  0.000914217 -1.90603e-05 
         550       16.345     0.999827  0.000914236 -1.90092e-05 
         550      16.4328     0.999828  0.000914262 -1.89564e-05 
         550      16.5207     0.999828  0.000914291 -1.89022e-05 
         550       16.609     0.999829  0.000914324  -1.8847e-05 
         550      16.6974     0.999829  0.000914357 -1.87913e-05 
         550      16.7861      0.99983  0.000914387 -1.87357e-05 
         550       16.875      0.99983  0.000914412  -1.8681e-05 
         550      16.9642     0.999831  0.000914427 -1.86283e-05 
         550      17.0537     0.999832  0.000914432 -1.85788e-05 
         550      17.1433     0.999832  0.000914424  -1.8534e-05 
         550      17.2332     0.999833  0.000914406 -1.84957e-05 
         550      17.3232     0.999834  0.000914351 -1.84814e-05 
         550      17.4136     0.999834  0.000914272 -1.84656e-05 
         550      17.5041     0.999835   0.00091418 -1.84461e-05 
         550       17.595     0.999836  0.000914089 -1.84237e-05 
         550      17.6861     0.999836  0.000914016 -1.83994e-05 
         550      17.7773     0.999837  0.000913985 -1.83747e-05 
         550      17.8689     0.999838  0.000914022 -1.83516e-05 
         550      17.9606     0.999838  0.000914162 -1.83329e-05 
         550      18.0526      0.99984  0.000914442 -1.83223e-05 
         550      18.1448      0.99984   0.00091442 -1.81508e-05 
         550      18.2373      0.99984   0.00091433 -1.80144e-05 
         550      18.3299     0.999841  0.000914211 -1.79127e-05 
         550      18.4229     0.999841  0.000914084 -1.78393e-05 
         550      18.5161     0.999842  0.000913961 -1.77895e-05 
         550      18.6094     0.999842  0.000913849 -1.77595e-05 
         550      18.7031     0.999843  0.000913846 -1.77546e-05 
         550      18.7969     0.999844  0.000913939 -1.77455e-05 
         550       18.891     0.999845  0.000914052 -1.77225e-05 
         550      18.9853     0.999846  0.000914172 -1.76885e-05 
         550      19.0799     0.999846  0.000914289  -1.7646e-05 
         550      19.1748     0.999847  0.000914393 -1.75972e-05 
         550      19.2698     0.999848  0.000914478 -1.75439e-05 
         550      19.3651     0.999848  0.000914539 -1.74875e-05 
         550      19.4606     0.999849  0.000914575 -1.74293e-05 
         550      19.5563     0.999849  0.000914584 -1.73703e-05 
         550      19.6523      0.99985  0.000914569 -1.73114e-05 
         550      19.7485     0.999851  0.000914532 -1.72529e-05 
         550      19.8449     0.999851  0.000914477 -1.71953e-05 
         550      19.9417     0.999852  0.000914409 -1.71389e-05 
         550      20.0386     0.999853  0.000914334 -1.70838e-05 
         550      20.1357     0.999854  0.000914255   -1.703e-05 
         550      20.2331     0.999854   0.00091418 -1.69774e-05 
         550      20.3307     0.999855  0.000914112 -1.69259e-05 
         550      20.4286     0.999856  0.000914057 -1.68753e-05 
         550      20.5267     0.999857  0.000914016 -1.68254e-05 
         550       20.625     0.999858  0.000913993 -1.67759e-05 
         550      20.7236     0.999859  0.000913988 -1.67267e-05 
         550      20.8224      0.99986  0.000914001 -1.66774e-05 
         550      20.9215      0.99986  0.000914032 -1.66278e-05 
         550      21.0207     0.999861  0.000914076 -1.65779e-05 
         550      21.1202     0.999862  0.000914132 -1.65274e-05 
         550      21.2199     0.999863  0.000914195 -1.64763e-05 
         550      21.3199     0.999864  0.000914259 -1.64244e-05 
         550      21.4202     0.999865  0.000914321 -1.63718e-05 
         550      21.5206     0.999866  0.000914374 -1.63185e-05 
         550      21.6213     0.999866  0.000914416 -1.62646e-05 
         550      21.7222     0.999867  0.000914441 -1.62103e-05 
         550      21.8234     0.999868  0.000914448 -1.61557e-05 
         550      21.9247     0.999869  0.000914435 -1.61011e-05 
         550      22.0264     0.999869  0.000914404 -1.60467e-05 
         550      22.1282      0.99987  0.000914357 -1.59927e-05 
         550      22.2303     0.999871  0.000914298 -1.59394e-05 
         550      22.3327     0.999872  0.000914234  -1.5887e-05 
         550      22.4352     0.999872  0.000914174 -1.58359e-05 
         550       22.538     0.999873  0.000914125 -1.57861e-05 
         550       22.641     0.999874  0.000914099 -1.57378e-05 
         550      22.7443     0.999874  0.000914102  -1.5691e-05 
         550      22.8477     0.999875  0.000914141 -1.56456e-05 
         550      22.9515     0.999876  0.000914218 -1.56013e-05 
         550      23.0555     0.999876  0.000914326 -1.55578e-05 
         550      23.1597     0.999877  0.000914449 -1.55144e-05 
         550      23.2642     0.999877  0.000914556 -1.54703e-05 
         550      23.3688     0.999878  0.000914597 -1.54244e-05 
         550      23.4737     0.999879  0.000914497 -1.53751e-05 
         550      23.5788      0.99988   0.00091415 -1.53207e-05 
         550      23.6843     0.999881  0.000913788 -1.52642e-05 
         550      23.7899     0.999881  0.000914272 -1.52171e-05 
         550      23.8957     0.999881  0.000914476 -1.51639e-05 
         550      24.0018     0.999881  0.000914501  -1.5106e-05 