Variables = x, y, u, v, p

Zone, I=416, F=POINT
         -50            0            0            0     -98.4629 
         -50     0.013333 -0.000155209 -3.43214e-08     -98.4629 
         -50     0.053333 -0.000111583 -1.07868e-07     -98.4629 
         -50         0.12 -9.29016e-05  -9.8688e-08     -98.4629 
         -50     0.213332 -8.88262e-05  2.98927e-07     -98.4629 
         -50     0.333332 -9.59868e-05  1.04234e-06     -98.4629 
         -50         0.48 -0.000104642  3.18149e-06     -98.4628 
         -50     0.653331 -0.000111457  5.21275e-06     -98.4627 
         -50     0.853332 -0.000118628  6.38453e-06     -98.4625 
         -50         1.08 -0.000125351  7.66226e-06     -98.4622 
         -50      1.33333 -0.000127814  8.58623e-06     -98.4618 
         -50      1.61333 -0.000127076  9.08461e-06     -98.4613 
         -50         1.92 -0.000122612  1.03102e-05     -98.4606 
         -50      2.25333 -0.000119085  1.03245e-05     -98.4597 
         -50      2.61333 -0.000114634   1.1823e-05     -98.4586 
         -50            3 -0.000105973  1.82485e-05     -98.4572 
         -25            0 -1.78309e-19 -5.42457e-24     -95.7484 
         -25     0.013333 -0.000143887 -5.58156e-09     -95.7484 
         -25     0.053333 -0.000136379  1.68077e-09     -95.7484 
         -25         0.12 -0.000150004 -6.38002e-08     -95.7484 
         -25     0.213332 -0.000158825 -4.86165e-07     -95.7484 
         -25     0.333332 -0.000159383 -1.56643e-06     -95.7484 
         -25         0.48  -0.00015564 -3.45938e-06     -95.7484 
         -25     0.653331 -0.000152939 -5.90854e-06     -95.7483 
         -25     0.853332 -0.000149557 -8.46584e-06     -95.7483 
         -25         1.08 -0.000141147 -1.09001e-05     -95.7482 
         -25      1.33333 -0.000128519 -1.28282e-05     -95.7481 
         -25      1.61333 -0.000115665 -1.42977e-05      -95.748 
         -25         1.92 -0.000101428 -1.44855e-05     -95.7478 
         -25      2.25333 -9.10144e-05 -1.46762e-05     -95.7476 
         -25      2.61333 -9.32605e-05 -1.71765e-05     -95.7473 
         -25            3 -0.000105058 -2.15539e-05     -95.7469 
           0            0            0            0     -93.1439 
           0     0.013333 -0.000394958  0.000295812     -93.1476 
           0     0.053333 -0.000239616  0.000141266     -93.1535 
           0         0.12 -0.000178003  9.97481e-05     -93.1602 
           0     0.213332 -0.000139294  7.60247e-05     -93.1675 
           0     0.333332 -0.000118378  6.12207e-05      -93.175 
           0         0.48 -0.000105622  4.88948e-05     -93.1827 
           0     0.653331  -9.9858e-05  3.85957e-05     -93.1904 
           0     0.853332 -9.83358e-05  2.96614e-05     -93.1981 
           0         1.08 -9.74893e-05  2.19406e-05     -93.2057 
           0      1.33333 -9.66922e-05  1.54865e-05     -93.2132 
           0      1.61333  -9.8385e-05  1.02331e-05     -93.2205 
           0         1.92 -0.000101179  6.26513e-06     -93.2276 
           0      2.25333 -0.000102888   3.1637e-06     -93.2344 
           0      2.61333 -0.000105802  6.15086e-07     -93.2409 
           0            3 -0.000105758  1.62341e-06     -93.2471 
          20            0  -1.7597e-19 -2.50411e-23     -91.5166 
          20     0.013333 -0.000142647 -2.91486e-08     -91.5166 
          20     0.053333 -0.000140814  7.20124e-08     -91.5166 
          20         0.12 -0.000169844  6.78273e-07     -91.5166 
          20     0.213332 -0.000198714  2.05043e-06     -91.5166 
          20     0.333332 -0.000209032  3.70105e-06     -91.5165 
          20         0.48 -0.000206249  4.22122e-06     -91.5164 
          20     0.653331 -0.000209469  2.38034e-06     -91.5163 
          20     0.853332 -0.000206562 -8.98415e-07      -91.516 
          20         1.08 -0.000189902 -4.55222e-06     -91.5157 
          20      1.33333 -0.000165347  -8.2961e-06     -91.5153 
          20      1.61333 -0.000136267  -1.1771e-05     -91.5147 
          20         1.92 -0.000106603 -1.46561e-05     -91.5139 
          20      2.25333 -8.53521e-05 -1.69101e-05     -91.5129 
          20      2.61333 -7.60543e-05 -1.77729e-05     -91.5118 
          20            3 -7.01701e-05 -1.70993e-05     -91.5105 
          40            0           -0           -0     -89.6112 
          40     0.013333  -0.00013869  4.65623e-08     -89.6112 
          40     0.053333 -0.000158214  6.56015e-07     -89.6112 
          40         0.12 -0.000223394  2.57848e-06     -89.6112 
          40     0.213332 -0.000295997  5.81993e-06     -89.6112 
          40     0.333332 -0.000351215  9.65016e-06     -89.6112 
          40         0.48 -0.000383207  1.35007e-05     -89.6112 
          40     0.653331 -0.000393782  1.77351e-05     -89.6112 
          40     0.853332 -0.000374628  2.35175e-05     -89.6112 
          40         1.08 -0.000324809   3.0794e-05     -89.6112 
          40      1.33333   -0.0002578  3.81859e-05     -89.6111 
          40      1.61333  -0.00018743  4.40381e-05     -89.6111 
          40         1.92 -0.000122136  4.74919e-05     -89.6111 
          40      2.25333 -6.86033e-05   4.8653e-05      -89.611 
          40      2.61333 -3.07904e-05  4.77366e-05     -89.6109 
          40            3  -1.1013e-05  4.51319e-05     -89.6109 
          60            0           -0           -0     -87.7499 
          60     0.013333 -9.20629e-05   3.4743e-08     -87.7499 
          60     0.053333  1.40457e-06  6.22106e-07     -87.7499 
          60         0.12  5.15671e-05   3.3699e-06     -87.7499 
          60     0.213332  3.37034e-05  1.04573e-05     -87.7499 
          60     0.333332 -2.74409e-05  2.28837e-05     -87.7499 
          60         0.48 -7.66068e-05   3.9677e-05     -87.7499 
          60     0.653331 -8.81135e-05  5.87734e-05     -87.7499 
          60     0.853332  -8.1554e-05  7.76347e-05     -87.7499 
          60         1.08 -8.21669e-05  9.45831e-05     -87.7499 
          60      1.33333 -8.66716e-05  0.000109055     -87.7498 
          60      1.61333 -9.25912e-05  0.000119938     -87.7498 
          60         1.92 -9.75393e-05  0.000125679     -87.7498 
          60      2.25333 -0.000101345  0.000125533     -87.7498 
          60      2.61333  -0.00010403  0.000120168     -87.7498 
          60            3 -0.000104116  0.000111244     -87.7498 
          80            0           -0           -0     -85.8979 
          80     0.013333 -8.25785e-05   6.8329e-08     -85.8979 
          80     0.053333  2.76137e-05  1.11664e-06     -85.8979 
          80         0.12  8.54432e-05  5.50355e-06     -85.8979 
          80     0.213332  6.72497e-05  1.57059e-05     -85.8979 
          80     0.333332   1.1147e-05   3.2255e-05     -85.8979 
          80         0.48 -2.24306e-05  5.38007e-05     -85.8979 
          80     0.653331 -8.98085e-06   7.8556e-05     -85.8979 
          80     0.853332  2.28954e-05   0.00010372     -85.8979 
          80         1.08  1.73965e-05   0.00012537     -85.8979 
          80      1.33333 -1.99395e-05  0.000141545     -85.8979 
          80      1.61333  -5.0757e-05  0.000152569     -85.8979 
          80         1.92   -7.581e-05  0.000157319     -85.8979 
          80      2.25333 -9.43391e-05  0.000155203     -85.8979 
          80      2.61333 -0.000104324  0.000146831     -85.8979 
          80            3  -0.00010779  0.000133398     -85.8979 
         100            0 -1.53962e-19 -5.97759e-26     -84.0497 
         100     0.013333 -0.000110743  1.03451e-07     -84.0497 
         100     0.053333 -7.92326e-05  1.56135e-06     -84.0497 
         100         0.12 -0.000123333  6.98915e-06     -84.0497 
         100     0.213332  -0.00022217  1.81177e-05     -84.0497 
         100     0.333332 -0.000311344  3.40362e-05     -84.0497 
         100         0.48 -0.000342994  5.25015e-05     -84.0497 
         100     0.653331 -0.000316736  7.21254e-05     -84.0497 
         100     0.853332 -0.000259373  9.18284e-05     -84.0497 
         100         1.08 -0.000212257  0.000109147     -84.0497 
         100      1.33333 -0.000182964  0.000122097     -84.0497 
         100      1.61333 -0.000149668  0.000130334     -84.0497 
         100         1.92 -0.000115926  0.000132982     -84.0497 
         100      2.25333 -8.74647e-05   0.00012968     -84.0497 
         100      2.61333 -6.33904e-05  0.000121182     -84.0496 
         100            3  -4.3678e-05  0.000108815     -84.0496 
         150            0           -0           -0     -79.4348 
         150     0.013333 -0.000171282 -3.00816e-08     -79.4348 
         150     0.053333  -0.00025708 -5.41818e-07     -79.4348 
         150         0.12 -0.000350514 -2.97457e-06     -79.4348 
         150     0.213332 -0.000382815 -9.34461e-06     -79.4348 
         150     0.333332 -0.000359826 -2.07836e-05     -79.4348 
         150         0.48 -0.000324759 -3.68794e-05     -79.4348 
         150     0.653331 -0.000310504 -5.64158e-05     -79.4348 
         150     0.853332 -0.000312934 -7.75187e-05     -79.4348 
         150         1.08 -0.000297543 -9.74247e-05     -79.4348 
         150      1.33333 -0.000251078 -0.000113681     -79.4348 
         150      1.61333 -0.000197625 -0.000125724     -79.4348 
         150         1.92 -0.000145718 -0.000132937     -79.4348 
         150      2.25333 -9.79775e-05  -0.00013425     -79.4348 
         150      2.61333 -6.02244e-05 -0.000130056     -79.4348 
         150            3 -3.67706e-05  -0.00012108     -79.4348 
         200            0            0            0      -74.824 
         200     0.013333 -0.000161219  2.58703e-08      -74.824 
         200     0.053333 -0.000236365  3.08644e-07      -74.824 
         200         0.12 -0.000352163  8.73813e-07      -74.824 
         200     0.213332 -0.000440954  7.59293e-07      -74.824 
         200     0.333332  -0.00047417 -1.53118e-06      -74.824 
         200         0.48  -0.00046613 -6.70905e-06      -74.824 
         200     0.653331 -0.000445211 -1.41891e-05      -74.824 
         200     0.853332 -0.000418301 -2.25576e-05      -74.824 
         200         1.08 -0.000376095 -3.05663e-05      -74.824 
         200      1.33333 -0.000318899  -3.7557e-05      -74.824 
         200      1.61333 -0.000255759 -4.34253e-05      -74.824 
         200         1.92 -0.000189206 -4.78211e-05      -74.824 
         200      2.25333 -0.000123687 -5.02093e-05     -74.8239 
         200      2.61333 -6.54314e-05 -5.04463e-05     -74.8239 
         200            3 -2.06268e-05 -4.85805e-05     -74.8239 
         250            0           -0           -0     -70.2163 
         250     0.013333 -0.000184624  4.08518e-08     -70.2163 
         250     0.053333 -0.000322945  4.88472e-07     -70.2163 
         250         0.12 -0.000519377  1.40551e-06     -70.2163 
         250     0.213332 -0.000674562  1.36606e-06     -70.2163 
         250     0.333332 -0.000740878 -1.87992e-06     -70.2163 
         250         0.48 -0.000738436 -9.52827e-06     -70.2163 
         250     0.653331 -0.000713476 -2.09316e-05     -70.2163 
         250     0.853332 -0.000679966 -3.39848e-05     -70.2163 
         250         1.08 -0.000616883 -4.62432e-05     -70.2163 
         250      1.33333  -0.00051911 -5.63405e-05     -70.2163 
         250      1.61333 -0.000409352 -6.45419e-05     -70.2163 
         250         1.92 -0.000295274 -7.08167e-05     -70.2162 
         250      2.25333 -0.000179546 -7.43212e-05     -70.2162 
         250      2.61333 -7.41662e-05 -7.49941e-05     -70.2162 
         250            3  4.90222e-06 -7.29865e-05     -70.2162 
         300            0            0            0     -65.6116 
         300     0.013333 -8.91169e-05   1.0997e-08     -65.6116 
         300     0.053333  2.10244e-05  2.17445e-07     -65.6116 
         300         0.12  0.000114005  1.33986e-06     -65.6116 
         300     0.213332  0.000154269  4.74745e-06     -65.6116 
         300     0.333332  0.000130464  1.17952e-05     -65.6116 
         300         0.48  7.31817e-05  2.28811e-05     -65.6116 
         300     0.653331  1.94936e-05  3.73342e-05     -65.6116 
         300     0.853332 -1.32668e-05  5.40592e-05     -65.6116 
         300         1.08 -2.84455e-05  7.20311e-05     -65.6116 
         300      1.33333 -3.90182e-05  9.01029e-05     -65.6116 
         300      1.61333 -5.53923e-05  0.000106881     -65.6116 
         300         1.92 -7.58505e-05  0.000121033     -65.6116 
         300      2.25333 -9.60131e-05  0.000131313     -65.6116 
         300      2.61333 -0.000113203  0.000136849     -65.6116 
         300            3 -0.000125718  0.000137346     -65.6116 
         350            0           -0           -0     -61.0101 
         350     0.013333 -0.000171348 -1.03713e-07     -61.0101 
         350     0.053333 -0.000237428 -1.60417e-06     -61.0101 
         350         0.12 -0.000261432 -7.54652e-06     -61.0101 
         350     0.213332 -0.000173815 -2.10754e-05     -61.0101 
         350     0.333332 -1.38822e-05 -4.32922e-05     -61.0101 
         350         0.48  0.000136317  -7.2898e-05     -61.0101 
         350     0.653331  0.000221611 -0.000107901     -61.0101 
         350     0.853332  0.000229844 -0.000146933     -61.0101 
         350         1.08  0.000180665  -0.00018851     -61.0101 
         350      1.33333  0.000118023 -0.000229786     -61.0101 
         350      1.61333  7.02591e-05 -0.000267303     -61.0101 
         350         1.92  2.58147e-05 -0.000298459     -61.0101 
         350      2.25333 -2.20693e-05 -0.000320713     -61.0101 
         350      2.61333 -6.92779e-05 -0.000332152     -61.0101 
         350            3 -0.000108558 -0.000332025     -61.0101 
         400            0           -0           -0     -56.4113 
         400     0.013333 -0.000138245  3.21297e-08     -56.4113 
         400     0.053333 -0.000154024   4.2147e-07     -56.4113 
         400         0.12 -0.000200765  1.51534e-06     -56.4113 
         400     0.213332 -0.000237266  2.92737e-06     -56.4113 
         400     0.333332 -0.000246394  3.79784e-06     -56.4113 
         400         0.48 -0.000237479  3.86814e-06     -56.4113 
         400     0.653331 -0.000227173  3.92837e-06     -56.4113 
         400     0.853332 -0.000212243  5.31549e-06     -56.4113 
         400         1.08  -0.00017855  9.03061e-06     -56.4113 
         400      1.33333 -0.000133136  1.47711e-05     -56.4113 
         400      1.61333 -0.000100013  2.10669e-05     -56.4113 
         400         1.92 -8.01351e-05  2.69207e-05     -56.4113 
         400      2.25333   -6.487e-05  3.20549e-05     -56.4113 
         400      2.61333 -5.30334e-05  3.61273e-05     -56.4113 
         400            3 -4.80918e-05  3.88213e-05     -56.4113 
         450            0            0            0     -51.8151 
         450     0.013333   -0.0001508  1.98271e-07     -51.8151 
         450     0.053333 -0.000252297  2.92458e-06     -51.8151 
         450         0.12 -0.000534052  1.28171e-05     -51.8151 
         450     0.213332 -0.000932687    3.282e-05     -51.8151 
         450     0.333332  -0.00129218   6.1226e-05     -51.8151 
         450         0.48  -0.00149187  9.33986e-05     -51.8151 
         450     0.653331   -0.0015263  0.000126093     -51.8151 
         450     0.853332  -0.00144255  0.000159136     -51.8151 
         450         1.08  -0.00128053  0.000193165     -51.8151 
         450      1.33333  -0.00108627  0.000226669     -51.8151 
         450      1.61333 -0.000896695  0.000256637     -51.8151 
         450         1.92 -0.000702028  0.000280861     -51.8151 
         450      2.25333  -0.00049278  0.000297814     -51.8151 
         450      2.61333 -0.000279361  0.000305939     -51.8151 
         450            3 -8.44437e-05  0.000304295     -51.8151 
         500            0           -0           -0       -47.22 
         500     0.013333  5.33378e-05 -1.46787e-07       -47.22 
         500     0.053333   0.00057121  -1.8972e-06       -47.22 
         500         0.12   0.00123231 -6.53684e-06       -47.22 
         500     0.213332   0.00179496 -1.10935e-05       -47.22 
         500     0.333332   0.00207151 -8.95115e-06       -47.22 
         500         0.48   0.00208291  4.66513e-06       -47.22 
         500     0.653331   0.00197663  2.89502e-05       -47.22 
         500     0.853332   0.00184576  5.86116e-05       -47.22 
         500         1.08   0.00166425   8.7003e-05       -47.22 
         500      1.33333   0.00139345  0.000110092       -47.22 
         500      1.61333   0.00108077  0.000128622       -47.22 
         500         1.92  0.000772569   0.00014457       -47.22 
         500      2.25333  0.000455984  0.000157086       -47.22 
         500      2.61333  0.000135167     0.000165       -47.22 
         500            3 -0.000161165  0.000167584       -47.22 
         550            0            0            0     -42.6286 
         550     0.013333 -0.000384111 -8.39623e-08     -42.6286 
         550     0.053333 -0.000997058  -1.6283e-06     -42.6286 
         550         0.12  -0.00164839 -9.77638e-06     -42.6286 
         550     0.213332  -0.00197418 -3.36564e-05     -42.6286 
         550     0.333332  -0.00188827 -8.13433e-05     -42.6286 
         550         0.48    -0.001589 -0.000154107     -42.6286 
         550     0.653331  -0.00132957 -0.000246712     -42.6286 
         550     0.853332   -0.0012156 -0.000351588     -42.6286 
         550         1.08  -0.00117918 -0.000460399     -42.6286 
         550      1.33333  -0.00108472 -0.000564516     -42.6286 
         550      1.61333 -0.000895138 -0.000658016     -42.6286 
         550         1.92 -0.000683128 -0.000738819     -42.6286 
         550      2.25333 -0.000469983 -0.000802793     -42.6286 
         550      2.61333 -0.000258062 -0.000845118     -42.6286 
         550            3 -5.82072e-05 -0.000862023     -42.6286 
         600            0           -0           -0     -38.0371 
         600     0.013333  0.000125127  1.76524e-07     -38.0371 
         600     0.053333  0.000739603  2.94605e-06     -38.0371 
         600         0.12   0.00130351  1.52478e-05     -38.0371 
         600     0.213332   0.00151203  4.67841e-05     -38.0371 
         600     0.333332   0.00133888  0.000104273     -38.0371 
         600         0.48   0.00101102  0.000187291     -38.0371 
         600     0.653331  0.000767642  0.000290487     -38.0371 
         600     0.853332  0.000706166  0.000407912     -38.0371 
         600         1.08  0.000768408  0.000532995     -38.0371 
         600      1.33333  0.000795413  0.000656448     -38.0371 
         600      1.61333  0.000690436  0.000769211     -38.0371 
         600         1.92  0.000522147  0.000866957     -38.0371 
         600      2.25333  0.000343669  0.000945818     -38.0371 
         600      2.61333  0.000164405   0.00100036     -38.0371 
         600            3 -1.36417e-05   0.00102566     -38.0372 
         650            0            0            0     -33.4487 
         650     0.013333 -0.000229592 -9.41521e-08     -33.4487 
         650     0.053333 -0.000451654 -1.50574e-06     -33.4487 
         650         0.12 -0.000677597 -7.38896e-06     -33.4487 
         650     0.213332 -0.000773249 -2.15182e-05     -33.4487 
         650     0.333332 -0.000737827 -4.58851e-05     -33.4487 
         650         0.48 -0.000655189 -7.97933e-05     -33.4487 
         650     0.653331 -0.000605372 -0.000121488     -33.4487 
         650     0.853332 -0.000623529 -0.000169761     -33.4487 
         650         1.08 -0.000696691 -0.000223049     -33.4487 
         650      1.33333 -0.000751279 -0.000277147     -33.4487 
         650      1.61333 -0.000712926   -0.0003263     -33.4487 
         650         1.92  -0.00061118 -0.000367842     -33.4487 
         650      2.25333 -0.000494742  -0.00040072     -33.4487 
         650      2.61333 -0.000375513 -0.000423296     -33.4487 
         650            3 -0.000252071 -0.000433669     -33.4487 
         700            0           -0           -0     -28.8617 
         700     0.013333 -0.000167959  5.27738e-08     -28.8617 
         700     0.053333  -0.00027147  7.28959e-07     -28.8617 
         700         0.12 -0.000452209  2.85475e-06     -28.8617 
         700     0.213332 -0.000632625  6.17664e-06     -28.8617 
         700     0.333332 -0.000744178  9.02267e-06     -28.8617 
         700         0.48 -0.000767867  9.62301e-06     -28.8617 
         700     0.653331 -0.000737837  7.58711e-06     -28.8617 
         700     0.853332 -0.000689348  4.09413e-06     -28.8617 
         700         1.08 -0.000625055  9.60154e-07     -28.8617 
         700      1.33333  -0.00053842 -8.45995e-07     -28.8617 
         700      1.61333 -0.000449056 -2.12908e-06     -28.8617 
         700         1.92 -0.000373438 -4.24989e-06     -28.8617 
         700      2.25333 -0.000298095 -6.81518e-06     -28.8617 
         700      2.61333 -0.000217146 -9.75283e-06     -28.8617 
         700            3 -0.000136183 -1.28899e-05     -28.8617 
         750            0            0            0     -24.2763 
         750     0.013333 -0.000116389 -1.77773e-08     -24.2763 
         750     0.053333 -6.77023e-05  -2.2883e-07     -24.2763 
         750         0.12 -2.69045e-05 -7.98191e-07     -24.2763 
         750     0.213332  6.13874e-06 -1.47941e-06     -24.2763 
         750     0.333332  2.57567e-05 -1.83815e-06     -24.2763 
         750         0.48  4.31261e-05 -1.86637e-06     -24.2763 
         750     0.653331  7.03629e-05 -2.12499e-06     -24.2763 
         750     0.853332  0.000104078 -3.48356e-06     -24.2763 
         750         1.08  0.000120573 -7.05512e-06     -24.2763 
         750      1.33333  9.65114e-05 -1.36964e-05     -24.2763 
         750      1.61333  4.52703e-05 -2.28989e-05     -24.2763 
         750         1.92  4.45152e-06 -3.27359e-05     -24.2763 
         750      2.25333 -2.68087e-05 -4.20701e-05     -24.2763 
         750      2.61333 -5.64239e-05 -5.05292e-05     -24.2763 
         750            3 -8.60252e-05 -5.78006e-05     -24.2763 
         800            0           -0           -0     -19.6928 
         800     0.013333  -0.00020669 -1.05941e-07     -19.6928 
         800     0.053333 -0.000357904 -1.70328e-06     -19.6928 
         800         0.12 -0.000460203  -8.4594e-06     -19.6928 
         800     0.213332 -0.000378563 -2.50639e-05     -19.6928 
         800     0.333332  -0.00013439 -5.43329e-05     -19.6928 
         800         0.48  0.000138514 -9.52691e-05     -19.6928 
         800     0.653331  0.000316943 -0.000144338     -19.6928 
         800     0.853332  0.000365338 -0.000198099     -19.6928 
         800         1.08  0.000322233 -0.000253866     -19.6928 
         800      1.33333  0.000259277 -0.000308726     -19.6928 
         800      1.61333  0.000222341 -0.000359972     -19.6928 
         800         1.92  0.000194612  -0.00040612     -19.6928 
         800      2.25333  0.000156498 -0.000446093     -19.6928 
         800      2.61333  0.000106631  -0.00047742     -19.6928 
         800            3  5.12892e-05 -0.000497417     -19.6928 
         850            0           -0           -0     -15.1103 
         850     0.013333  6.14837e-05 -2.56896e-08     -15.1103 
         850     0.053333  0.000577245 -1.71731e-07     -15.1103 
         850         0.12    0.0011877  6.66913e-07     -15.1103 
         850     0.213332   0.00166168  6.45229e-06     -15.1103 
         850     0.333332   0.00185474  2.25804e-05     -15.1103 
         850         0.48   0.00181182  5.21396e-05     -15.1103 
         850     0.653331   0.00168584  9.40848e-05     -15.1103 
         850     0.853332   0.00159249  0.000144563     -15.1103 
         850         1.08   0.00153404   0.00019845     -15.1103 
         850      1.33333   0.00143005  0.000250282     -15.1103 
         850      1.61333   0.00123261  0.000296385     -15.1103 
         850         1.92  0.000992864  0.000336817     -15.1103 
         850      2.25333  0.000746777  0.000371779     -15.1103 
         850      2.61333  0.000494281   0.00039973     -15.1103 
         850            3  0.000232179   0.00041841     -15.1104 
         900            0           -0           -0     -10.5307 
         900     0.013333 -0.000203686  1.06543e-07     -10.5307 
         900     0.053333 -0.000414099  1.47146e-06     -10.5307 
         900         0.12  -0.00075596  5.77891e-06     -10.5307 
         900     0.213332  -0.00110047   1.2664e-05     -10.5307 
         900     0.333332  -0.00132323  1.91522e-05     -10.5307 
         900         0.48  -0.00139171  2.22177e-05     -10.5307 
         900     0.653331  -0.00136968   2.1515e-05     -10.5307 
         900     0.853332   -0.0013203  1.96102e-05     -10.5307 
         900         1.08  -0.00123723  2.04248e-05     -10.5307 
         900      1.33333  -0.00108159  2.68033e-05     -10.5307 
         900      1.61333 -0.000874931  3.79923e-05     -10.5307 
         900         1.92   -0.0006938  5.03173e-05     -10.5307 
         900      2.25333 -0.000536929  6.13627e-05     -10.5307 
         900      2.61333 -0.000382088   7.0834e-05     -10.5307 
         900            3 -0.000222349  7.87724e-05     -10.5307 
         950            0           -0           -0     -5.95044 
         950     0.013333  1.97203e-05 -2.01767e-07     -5.95044 
         950     0.053333  0.000486327 -2.89892e-06     -5.95044 
         950         0.12   0.00118745 -1.20279e-05     -5.95044 
         950     0.213332   0.00194191 -2.84128e-05     -5.95044 
         950     0.333332   0.00248301 -4.73094e-05     -5.95044 
         950         0.48   0.00267693 -6.17496e-05     -5.95044 
         950     0.653331   0.00259621 -6.83098e-05     -5.95044 
         950     0.853332   0.00238418 -6.92195e-05     -5.95044 
         950         1.08    0.0021068 -6.97395e-05     -5.95044 
         950      1.33333   0.00177369 -7.31292e-05     -5.95044 
         950      1.61333   0.00143638 -7.77631e-05     -5.95044 
         950         1.92   0.00115386  -7.9792e-05     -5.95045 
         950      2.25333  0.000886879 -7.88414e-05     -5.95046 
         950      2.61333  0.000601525 -7.52516e-05     -5.95047 
         950            3  0.000300029 -6.94281e-05     -5.95049 
        1000            0           -0           -0     -1.37321 
        1000     0.013333  0.000107332  3.35938e-07     -1.37321 
        1000     0.053333  0.000636656  5.39523e-06     -1.37321 
        1000         0.12  0.000988813   2.5967e-05     -1.37321 
        1000     0.213332  0.000843958  7.43813e-05     -1.37321 
        1000     0.333332  0.000239259  0.000156753     -1.37321 
        1000         0.48 -0.000481555    0.0002697     -1.37321 
        1000     0.653331  -0.00097949  0.000404468     -1.37321 
        1000     0.853332  -0.00111809  0.000553636     -1.37321 
        1000         1.08 -0.000945961  0.000713006     -1.37321 
        1000      1.33333 -0.000634772  0.000876716     -1.37321 
        1000      1.61333 -0.000395262   0.00103493     -1.37321 
        1000         1.92 -0.000298877   0.00117891     -1.37321 
        1000      2.25333 -0.000238283    0.0013057     -1.37321 
        1000      2.61333 -0.000159299   0.00140995     -1.37321 
        1000            3 -7.28788e-05   0.00148495     -1.37321 
