Variables = x, y, u, v, p

Zone, I=2080, F=POINT
         -50            0            0            0      104.232 
         -50      0.00048  -1.0413e-05  1.24737e-09      104.232 
         -50     0.001922 -3.69246e-05  4.13507e-09      104.232 
         -50     0.004326 -6.76904e-05  6.41469e-09      104.232 
         -50      0.00769 -8.99926e-05  5.29851e-09      104.232 
         -50     0.012017 -9.69943e-05 -1.57656e-09      104.232 
         -50     0.017304 -9.10933e-05 -1.55289e-08      104.232 
         -50     0.023553  -8.1658e-05 -3.69009e-08      104.232 
         -50     0.030763 -7.77005e-05 -6.57221e-08      104.232 
         -50     0.038936 -8.01762e-05 -1.02533e-07      104.232 
         -50     0.048069 -8.10662e-05 -1.48515e-07      104.232 
         -50     0.058163 -7.40181e-05 -2.04628e-07      104.232 
         -50     0.069219 -6.87263e-05 -2.70785e-07      104.232 
         -50     0.081236 -7.14022e-05 -3.50006e-07      104.232 
         -50     0.094215 -6.57947e-05 -4.41644e-07      104.232 
         -50     0.108155 -6.31564e-05 -5.44978e-07      104.232 
         -50     0.123056 -6.02829e-05 -6.59662e-07      104.232 
         -50     0.138918 -5.73568e-05 -7.84589e-07      104.232 
         -50     0.155744 -5.44494e-05 -9.19037e-07      104.232 
         -50     0.173529 -5.15544e-05 -1.06159e-06      104.232 
         -50     0.192276 -4.86496e-05 -1.20934e-06      104.232 
         -50     0.211984 -4.57641e-05 -1.35792e-06      104.232 
         -50     0.232655  -4.2983e-05 -1.50466e-06      104.232 
         -50     0.254285 -4.02987e-05 -1.65466e-06      104.232 
         -50     0.276877 -3.77069e-05 -1.79198e-06      104.232 
         -50     0.300431 -3.52508e-05 -1.92794e-06      104.232 
         -50     0.324946 -3.29343e-05 -2.08212e-06      104.232 
         -50     0.350424 -3.07657e-05  -2.2703e-06      104.232 
         -50     0.376861 -2.87583e-05 -2.50279e-06      104.232 
         -50      0.40426 -2.69297e-05 -2.78294e-06      104.232 
         -50     0.432621 -2.53022e-05 -3.10577e-06      104.232 
         -50     0.461945 -2.39009e-05 -3.45693e-06      104.232 
         -50     0.492228 -2.27527e-05 -3.81208e-06      104.232 
         -50     0.523472 -2.18842e-05 -4.13684e-06      104.232 
         -50     0.555678 -2.13204e-05 -4.38727e-06      104.232 
         -50     0.588845 -2.10838e-05 -4.51106e-06      104.232 
         -50     0.622976 -2.11966e-05 -4.57042e-06      104.232 
         -50     0.658066 -2.16421e-05 -4.79164e-06      104.232 
         -50     0.694117  -2.2423e-05 -5.07825e-06      104.232 
         -50      0.73113 -2.35464e-05  -5.4209e-06      104.232 
         -50     0.769107 -2.50041e-05 -5.80858e-06      104.232 
         -50     0.808042 -2.67736e-05 -6.22913e-06      104.232 
         -50     0.847939 -2.88212e-05 -6.67024e-06      104.232 
         -50     0.888797 -3.11042e-05 -7.12014e-06      104.232 
         -50      0.93062 -3.35752e-05 -7.56855e-06      104.232 
         -50       0.9734 -3.61856e-05 -8.00742e-06      104.232 
         -50      1.01714 -3.88906e-05 -8.43191e-06      104.231 
         -50      1.06185 -4.16524e-05 -8.84067e-06      104.231 
         -50      1.10751 -4.44442e-05  -9.2361e-06      104.231 
         -50      1.15414 -4.72513e-05 -9.62387e-06      104.231 
         -50      1.20173 -5.00702e-05 -1.00117e-05      104.231 
         -50      1.25028 -5.29055e-05 -1.04071e-05      104.231 
         -50      1.29979 -5.57606e-05  -1.0814e-05      104.231 
         -50      1.35026  -5.8624e-05 -1.12273e-05      104.231 
         -50       1.4017  -6.1445e-05 -1.16255e-05      104.231 
         -50      1.45409 -6.41038e-05 -1.19611e-05      104.231 
         -50      1.50745  -6.6366e-05 -1.21591e-05      104.231 
         -50      1.56176 -6.86607e-05 -1.27402e-05      104.231 
         -50      1.61705 -7.13186e-05 -1.31066e-05       104.23 
         -50      1.67329 -7.40063e-05 -1.32852e-05       104.23 
         -50      1.73049 -7.64638e-05 -1.33085e-05       104.23 
         -50      1.78865 -7.85036e-05 -1.32141e-05       104.23 
         -50      1.84778 -8.00091e-05 -1.30441e-05       104.23 
         -50      1.90786  -8.0931e-05 -1.28433e-05       104.23 
         -50      1.96891  -8.1282e-05 -1.26588e-05       104.23 
         -50      2.03092 -8.11299e-05 -1.25378e-05      104.229 
         -50      2.09389 -8.05878e-05 -1.25271e-05      104.229 
         -50      2.15782 -7.98046e-05 -1.26705e-05      104.229 
         -50      2.22272 -7.89525e-05 -1.30079e-05      104.229 
         -50      2.28857  -7.8214e-05 -1.35732e-05      104.229 
         -50      2.35539 -7.77684e-05 -1.43929e-05      104.228 
         -50      2.42317 -7.77773e-05 -1.54844e-05      104.228 
         -50      2.49191 -7.83711e-05 -1.68544e-05      104.228 
         -50      2.56161 -7.96359e-05 -1.84979e-05      104.228 
         -50      2.63226 -8.16015e-05 -2.03974e-05      104.228 
         -50      2.70389 -8.42333e-05 -2.25227e-05      104.227 
         -50      2.77648 -8.74254e-05 -2.48297e-05      104.227 
         -50      2.85002 -9.10011e-05 -2.72629e-05      104.227 
         -50      2.92453 -9.47171e-05 -2.97563e-05      104.226 
         -50            3 -9.82765e-05 -3.22359e-05      104.226 
         -25            0   -8.781e-20  3.70381e-24      101.423 
         -25      0.00048 -8.74869e-06  3.75298e-10      101.423 
         -25     0.001922  -3.0974e-05  1.40693e-09      101.423 
         -25     0.004326 -5.66066e-05  2.89538e-09      101.423 
         -25      0.00769 -7.48488e-05  4.76122e-09      101.423 
         -25     0.012017 -7.99266e-05  7.30542e-09      101.423 
         -25     0.017304 -7.39479e-05  1.13666e-08      101.423 
         -25     0.023553 -6.49675e-05   1.8314e-08      101.423 
         -25     0.030763 -6.07412e-05  2.98622e-08      101.423 
         -25     0.038936 -6.21593e-05    4.786e-08      101.423 
         -25     0.048069 -6.24628e-05  7.42154e-08      101.423 
         -25     0.058163 -5.63084e-05  1.11118e-07      101.423 
         -25     0.069219 -5.20201e-05  1.61184e-07      101.423 
         -25     0.081236  -5.4936e-05  2.26221e-07      101.423 
         -25     0.094215 -5.12425e-05  3.09071e-07      101.423 
         -25     0.108155 -5.05456e-05  4.12659e-07      101.423 
         -25     0.123056 -5.01143e-05  5.39075e-07      101.423 
         -25     0.138918 -5.00895e-05  6.90657e-07      101.423 
         -25     0.155744 -5.05016e-05  8.69528e-07      101.423 
         -25     0.173529 -5.12998e-05  1.07739e-06      101.423 
         -25     0.192276 -5.24097e-05  1.31562e-06      101.423 
         -25     0.211984 -5.37917e-05  1.58512e-06      101.423 
         -25     0.232655 -5.54483e-05  1.88641e-06      101.423 
         -25     0.254285 -5.72979e-05   2.2197e-06      101.423 
         -25     0.276877 -5.92609e-05  2.58585e-06      101.423 
         -25     0.300431 -6.13004e-05  2.98257e-06      101.423 
         -25     0.324946 -6.33518e-05  3.40789e-06      101.423 
         -25     0.350424 -6.53555e-05  3.86135e-06      101.423 
         -25     0.376861 -6.72576e-05  4.34341e-06      101.423 
         -25      0.40426 -6.90117e-05  4.85496e-06      101.423 
         -25     0.432621 -7.05793e-05  5.39628e-06      101.423 
         -25     0.461945 -7.19289e-05  5.96637e-06      101.423 
         -25     0.492228 -7.30367e-05  6.56227e-06      101.423 
         -25     0.523472 -7.38861e-05  7.17955e-06      101.423 
         -25     0.555678 -7.44686e-05   7.8137e-06      101.423 
         -25     0.588845 -7.47873e-05  8.46366e-06      101.423 
         -25     0.622976 -7.48636e-05  9.11191e-06      101.423 
         -25     0.658066 -7.46992e-05  9.74865e-06      101.423 
         -25     0.694117 -7.43271e-05  1.04043e-05      101.423 
         -25      0.73113 -7.37952e-05  1.10734e-05      101.423 
         -25     0.769107  -7.3148e-05  1.17511e-05      101.422 
         -25     0.808042 -7.24259e-05  1.24332e-05      101.422 
         -25     0.847939 -7.16632e-05  1.31162e-05      101.422 
         -25     0.888797  -7.0889e-05  1.37968e-05      101.422 
         -25      0.93062 -7.01254e-05  1.44718e-05      101.422 
         -25       0.9734 -6.93888e-05  1.51379e-05      101.422 
         -25      1.01714 -6.86892e-05  1.57915e-05      101.422 
         -25      1.06185 -6.80313e-05  1.64286e-05      101.422 
         -25      1.10751 -6.74155e-05  1.70443e-05      101.422 
         -25      1.15414 -6.68394e-05   1.7634e-05      101.422 
         -25      1.20173 -6.62995e-05  1.81924e-05      101.422 
         -25      1.25028 -6.57931e-05  1.87156e-05      101.422 
         -25      1.29979 -6.53209e-05  1.92016e-05      101.422 
         -25      1.35026 -6.48895e-05  1.96527e-05      101.422 
         -25       1.4017 -6.45141e-05  2.00778e-05      101.422 
         -25      1.45409 -6.42209e-05  2.04964e-05      101.422 
         -25      1.50745 -6.40345e-05  2.09429e-05      101.422 
         -25      1.56176 -6.35986e-05  2.12961e-05      101.422 
         -25      1.61705  -6.3851e-05  2.15164e-05      101.422 
         -25      1.67329 -6.45796e-05  2.16469e-05      101.422 
         -25      1.73049 -6.55995e-05  2.17229e-05      101.422 
         -25      1.78865 -6.67544e-05  2.17721e-05      101.422 
         -25      1.84778 -6.79178e-05  2.18141e-05      101.422 
         -25      1.90786 -6.89923e-05  2.18607e-05      101.422 
         -25      1.96891   -6.991e-05   2.1916e-05      101.422 
         -25      2.03092  -7.0631e-05  2.19772e-05      101.422 
         -25      2.09389 -7.11414e-05  2.20351e-05      101.422 
         -25      2.15782 -7.14509e-05  2.20749e-05      101.422 
         -25      2.22272 -7.15895e-05  2.20774e-05      101.422 
         -25      2.28857 -7.16037e-05  2.20201e-05      101.422 
         -25      2.35539 -7.15521e-05  2.18786e-05      101.422 
         -25      2.42317 -7.15004e-05  2.16278e-05      101.422 
         -25      2.49191 -7.15165e-05  2.12441e-05      101.422 
         -25      2.56161 -7.16649e-05  2.07061e-05      101.421 
         -25      2.63226 -7.20016e-05  1.99967e-05      101.421 
         -25      2.70389 -7.25687e-05  1.91043e-05      101.421 
         -25      2.77648 -7.33898e-05  1.80244e-05      101.421 
         -25      2.85002 -7.44662e-05  1.67602e-05      101.421 
         -25      2.92453 -7.57742e-05  1.53234e-05      101.421 
         -25            3 -7.72638e-05  1.37345e-05      101.421 
           0            0            0            0      98.7289 
           0      0.00048 -7.12713e-05  4.14813e-05       98.729 
           0     0.001922 -0.000245832  0.000141152      98.7293 
           0     0.004326 -0.000427245  0.000238908      98.7298 
           0      0.00769 -0.000517492  0.000275946      98.7305 
           0     0.012017 -0.000475224  0.000232359      98.7315 
           0     0.017304 -0.000341317  0.000141969      98.7326 
           0     0.023553 -0.000211252  7.07339e-05      98.7337 
           0     0.030763 -0.000163533  6.62185e-05      98.7349 
           0     0.038936  -0.00019078  0.000111291      98.7361 
           0     0.048069 -0.000202652  0.000130729      98.7372 
           0     0.058163 -0.000140588  7.88985e-05      98.7384 
           0     0.069219 -0.000111798  4.38488e-05      98.7397 
           0     0.081236 -0.000142868  8.93325e-05      98.7411 
           0     0.094215 -0.000113046  6.66814e-05      98.7424 
           0     0.108155 -0.000114159  6.15388e-05      98.7437 
           0     0.123056  -0.00010713  5.65659e-05      98.7451 
           0     0.138918 -0.000102245  5.34201e-05      98.7465 
           0     0.155744  -0.00010232  5.17686e-05      98.7479 
           0     0.173529 -0.000104936  5.02153e-05      98.7493 
           0     0.192276 -0.000106706  4.77432e-05      98.7507 
           0     0.211984 -0.000107526  4.49524e-05      98.7521 
           0     0.232655 -0.000110572   4.3675e-05      98.7536 
           0     0.254285 -0.000113645  4.28005e-05       98.755 
           0     0.276877 -0.000117203  4.14738e-05      98.7565 
           0     0.300431  -0.00012071  4.05104e-05       98.758 
           0     0.324946 -0.000124214  3.96814e-05      98.7595 
           0     0.350424   -0.0001276  3.90077e-05       98.761 
           0     0.376861 -0.000130814  3.84767e-05      98.7625 
           0      0.40426 -0.000133773  3.80733e-05       98.764 
           0     0.432621 -0.000136425  3.77871e-05      98.7655 
           0     0.461945 -0.000138715  3.76218e-05       98.767 
           0     0.492228 -0.000140605  3.75498e-05      98.7685 
           0     0.523472 -0.000142075  3.75769e-05        98.77 
           0     0.555678 -0.000143098  3.76906e-05      98.7715 
           0     0.588845 -0.000143668  3.78867e-05       98.773 
           0     0.622976 -0.000143791  3.81574e-05      98.7746 
           0     0.658066 -0.000143478   3.8501e-05      98.7761 
           0     0.694117 -0.000142753  3.89105e-05      98.7776 
           0      0.73113 -0.000141652  3.93788e-05      98.7791 
           0     0.769107 -0.000140222  3.98993e-05      98.7806 
           0     0.808042 -0.000138515  4.04664e-05      98.7821 
           0     0.847939 -0.000136591  4.10748e-05      98.7836 
           0     0.888797 -0.000134507  4.17183e-05      98.7851 
           0      0.93062 -0.000132324  4.23853e-05      98.7866 
           0       0.9734 -0.000130103  4.30736e-05      98.7881 
           0      1.01714 -0.000127881  4.37801e-05      98.7896 
           0      1.06185 -0.000125686  4.44869e-05      98.7911 
           0      1.10751 -0.000123531  4.51854e-05      98.7925 
           0      1.15414 -0.000121417  4.58881e-05       98.794 
           0      1.20173 -0.000119334  4.65693e-05      98.7955 
           0      1.25028  -0.00011726  4.72541e-05      98.7969 
           0      1.29979 -0.000115178    4.788e-05      98.7984 
           0      1.35026 -0.000113043   4.8485e-05      98.7998 
           0       1.4017 -0.000110849  4.90809e-05      98.8013 
           0      1.45409  -0.00010858  4.96456e-05      98.8027 
           0      1.50745  -0.00010622  5.01621e-05      98.8041 
           0      1.56176 -0.000103747  5.06233e-05      98.8055 
           0      1.61705 -0.000101146  5.10328e-05      98.8069 
           0      1.67329 -9.84087e-05   5.1402e-05      98.8083 
           0      1.73049 -9.55415e-05  5.17411e-05      98.8097 
           0      1.78865 -9.25682e-05  5.20409e-05      98.8111 
           0      1.84778 -8.95364e-05  5.22457e-05      98.8125 
           0      1.90786 -8.65338e-05  5.23752e-05      98.8138 
           0      1.96891  -8.3721e-05  5.24909e-05      98.8152 
           0      2.03092 -8.11175e-05  5.24613e-05      98.8165 
           0      2.09389 -7.88184e-05  5.23107e-05      98.8179 
           0      2.15782 -7.69275e-05  5.21288e-05      98.8192 
           0      2.22272 -7.54098e-05  5.19034e-05      98.8205 
           0      2.28857 -7.41805e-05  5.16135e-05      98.8218 
           0      2.35539 -7.31429e-05  5.12663e-05      98.8231 
           0      2.42317 -7.22098e-05  5.09094e-05      98.8244 
           0      2.49191 -7.13021e-05  5.06077e-05      98.8257 
           0      2.56161  -7.0314e-05  5.03753e-05       98.827 
           0      2.63226 -6.92003e-05  5.01428e-05      98.8282 
           0      2.70389 -6.79858e-05  4.99117e-05      98.8294 
           0      2.77648 -6.66096e-05  4.96415e-05      98.8307 
           0      2.85002  -6.5144e-05  4.92946e-05      98.8319 
           0      2.92453 -6.37057e-05  4.88353e-05      98.8331 
           0            3 -6.24073e-05  4.82388e-05      98.8343 
          20            0 -7.83542e-20  1.74647e-23      97.0427 
          20      0.00048  -7.7723e-06  1.66489e-09      97.0427 
          20     0.001922 -2.71175e-05  4.95991e-09      97.0427 
          20     0.004326 -4.80966e-05  5.21805e-09      97.0427 
          20      0.00769  -6.0051e-05  -3.9941e-09      97.0427 
          20     0.012017 -5.72654e-05 -2.94753e-08      97.0427 
          20     0.017304 -4.18143e-05 -7.72899e-08      97.0427 
          20     0.023553 -2.16444e-05 -1.52529e-07      97.0427 
          20     0.030763 -4.44471e-06 -2.59692e-07      97.0427 
          20     0.038936  8.82812e-06 -4.03368e-07      97.0427 
          20     0.048069  2.47042e-05 -5.87955e-07      97.0427 
          20     0.058163   4.8284e-05 -8.16472e-07      97.0427 
          20     0.069219  7.11597e-05  -1.0894e-06      97.0427 
          20     0.081236   8.7821e-05  -1.4098e-06      97.0427 
          20     0.094215  0.000111613 -1.77498e-06      97.0427 
          20     0.108155   0.00013278 -2.18074e-06      97.0427 
          20     0.123056   0.00015372 -2.62455e-06      97.0427 
          20     0.138918  0.000174008 -3.10176e-06      97.0427 
          20     0.155744  0.000193347 -3.60803e-06      97.0427 
          20     0.173529  0.000211535 -4.13919e-06      97.0427 
          20     0.192276  0.000228436 -4.69185e-06      97.0427 
          20     0.211984   0.00024391 -5.26321e-06      97.0427 
          20     0.232655  0.000257817  -5.8518e-06      97.0427 
          20     0.254285  0.000270134 -6.45944e-06      97.0426 
          20     0.276877  0.000280899 -7.08595e-06      97.0426 
          20     0.300431  0.000290159 -7.73003e-06      97.0426 
          20     0.324946  0.000298009 -8.39502e-06      97.0426 
          20     0.350424    0.0003046 -9.08077e-06      97.0426 
          20     0.376861  0.000310129  -9.7835e-06      97.0426 
          20      0.40426  0.000314822 -1.04972e-05      97.0426 
          20     0.432621  0.000318933 -1.12099e-05      97.0425 
          20     0.461945  0.000322686  -1.1907e-05      97.0425 
          20     0.492228  0.000326262 -1.25721e-05      97.0425 
          20     0.523472  0.000329771 -1.31885e-05      97.0425 
          20     0.555678  0.000333227 -1.37416e-05      97.0424 
          20     0.588845  0.000336525 -1.42203e-05      97.0424 
          20     0.622976   0.00033944 -1.46199e-05      97.0424 
          20     0.658066  0.000341638 -1.49437e-05      97.0423 
          20     0.694117  0.000342721 -1.52038e-05      97.0423 
          20      0.73113  0.000342313 -1.54212e-05      97.0423 
          20     0.769107  0.000340131 -1.56174e-05      97.0422 
          20     0.808042  0.000335917 -1.58145e-05      97.0422 
          20     0.847939   0.00032958 -1.60339e-05      97.0421 
          20     0.888797  0.000321131 -1.62891e-05      97.0421 
          20      0.93062  0.000310679 -1.65895e-05       97.042 
          20       0.9734  0.000298412 -1.69406e-05      97.0419 
          20      1.01714  0.000284572 -1.73406e-05      97.0419 
          20      1.06185   0.00026942 -1.77844e-05      97.0418 
          20      1.10751  0.000253195 -1.82668e-05      97.0417 
          20      1.15414  0.000236109 -1.87786e-05      97.0416 
          20      1.20173  0.000218337 -1.93129e-05      97.0415 
          20      1.25028  0.000200025 -1.98688e-05      97.0414 
          20      1.29979  0.000181292  -2.0429e-05      97.0413 
          20      1.35026  0.000162216  -2.0996e-05      97.0412 
          20       1.4017  0.000142871  -2.1562e-05      97.0411 
          20      1.45409  0.000123331 -2.21218e-05       97.041 
          20      1.50745  0.000103677 -2.26717e-05      97.0409 
          20      1.56176   8.4001e-05 -2.32086e-05      97.0408 
          20      1.61705  6.43947e-05 -2.37283e-05      97.0406 
          20      1.67329  4.49615e-05 -2.42253e-05      97.0405 
          20      1.73049  2.58464e-05 -2.47051e-05      97.0404 
          20      1.78865  7.15068e-06 -2.51532e-05      97.0402 
          20      1.84778 -1.09995e-05 -2.55697e-05        97.04 
          20      1.90786 -2.84915e-05 -2.59563e-05      97.0399 
          20      1.96891 -4.52401e-05 -2.63158e-05      97.0397 
          20      2.03092 -6.11593e-05 -2.66514e-05      97.0395 
          20      2.09389  -7.6224e-05  -2.6963e-05      97.0393 
          20      2.15782 -9.04044e-05 -2.72587e-05      97.0391 
          20      2.22272 -0.000103657 -2.75406e-05      97.0389 
          20      2.28857 -0.000115951 -2.78044e-05      97.0387 
          20      2.35539 -0.000127263 -2.80443e-05      97.0385 
          20      2.42317 -0.000137557 -2.82568e-05      97.0383 
          20      2.49191  -0.00014679  -2.8443e-05      97.0381 
          20      2.56161 -0.000154925 -2.86091e-05      97.0378 
          20      2.63226 -0.000161955 -2.87653e-05      97.0376 
          20      2.70389 -0.000167951 -2.89201e-05      97.0373 
          20      2.77648 -0.000173095 -2.90886e-05      97.0371 
          20      2.85002 -0.000177069 -2.93047e-05      97.0368 
          20      2.92453 -0.000180299 -2.95478e-05      97.0365 
          20            3 -0.000182745 -2.98237e-05      97.0362 
          40            0           -0           -0      95.0688 
          40      0.00048 -9.13976e-06  8.37204e-11      95.0688 
          40     0.001922 -3.28464e-05  4.08353e-10      95.0688 
          40     0.004326 -6.17997e-05  1.18123e-09      95.0688 
          40      0.00769 -8.59601e-05  2.69962e-09      95.0688 
          40     0.012017 -9.98702e-05  5.26382e-09      95.0688 
          40     0.017304 -0.000105259  9.01894e-09      95.0688 
          40     0.023553 -0.000109288  1.37413e-08      95.0688 
          40     0.030763 -0.000118802  1.85667e-08      95.0688 
          40     0.038936 -0.000134309  2.17263e-08      95.0688 
          40     0.048069  -0.00014925  2.03379e-08      95.0688 
          40     0.058163 -0.000158354  1.03081e-08      95.0688 
          40     0.069219 -0.000168895 -1.37268e-08      95.0688 
          40     0.081236 -0.000185419 -5.86739e-08      95.0688 
          40     0.094215  -0.00019488 -1.32473e-07      95.0688 
          40     0.108155 -0.000205788 -2.44107e-07      95.0688 
          40     0.123056 -0.000215365 -4.03677e-07      95.0688 
          40     0.138918 -0.000223524 -6.21629e-07      95.0688 
          40     0.155744 -0.000230146 -9.08558e-07      95.0688 
          40     0.173529 -0.000235109 -1.27468e-06      95.0688 
          40     0.192276 -0.000238344 -1.72974e-06      95.0688 
          40     0.211984 -0.000239887 -2.28242e-06      95.0688 
          40     0.232655 -0.000239877 -2.93994e-06      95.0688 
          40     0.254285 -0.000238436 -3.70692e-06      95.0688 
          40     0.276877  -0.00023573 -4.58847e-06      95.0688 
          40     0.300431 -0.000231995 -5.58594e-06      95.0688 
          40     0.324946 -0.000227464 -6.69772e-06      95.0688 
          40     0.350424 -0.000222368 -7.92137e-06      95.0688 
          40     0.376861 -0.000216933 -9.25307e-06      95.0688 
          40      0.40426 -0.000211363 -1.06879e-05      95.0688 
          40     0.432621 -0.000205839 -1.22192e-05      95.0688 
          40     0.461945 -0.000200502 -1.38386e-05      95.0688 
          40     0.492228 -0.000195459 -1.55362e-05      95.0688 
          40     0.523472 -0.000190778 -1.73017e-05      95.0688 
          40     0.555678 -0.000186488 -1.91259e-05      95.0688 
          40     0.588845 -0.000182595 -2.10042e-05      95.0688 
          40     0.622976 -0.000179107 -2.29399e-05      95.0688 
          40     0.658066 -0.000175959 -2.48984e-05      95.0688 
          40     0.694117 -0.000173092 -2.68747e-05      95.0687 
          40      0.73113 -0.000170486 -2.88782e-05      95.0687 
          40     0.769107 -0.000168108  -3.0913e-05      95.0687 
          40     0.808042 -0.000165911 -3.29783e-05      95.0687 
          40     0.847939 -0.000163838   -3.507e-05      95.0687 
          40     0.888797  -0.00016182 -3.71802e-05      95.0687 
          40      0.93062 -0.000159784 -3.92991e-05      95.0687 
          40       0.9734 -0.000157655 -4.14154e-05      95.0687 
          40      1.01714 -0.000155357 -4.35186e-05      95.0687 
          40      1.06185 -0.000152821 -4.55992e-05      95.0687 
          40      1.10751  -0.00014999 -4.76502e-05      95.0687 
          40      1.15414 -0.000146821 -4.96673e-05      95.0687 
          40      1.20173 -0.000143292 -5.16478e-05      95.0687 
          40      1.25028 -0.000139406 -5.35904e-05      95.0687 
          40      1.29979  -0.00013519  -5.5491e-05      95.0687 
          40      1.35026 -0.000130701 -5.73382e-05      95.0687 
          40       1.4017 -0.000126019 -5.91042e-05      95.0687 
          40      1.45409 -0.000121246 -6.07352e-05      95.0687 
          40      1.50745 -0.000116489 -6.21421e-05      95.0687 
          40      1.56176 -0.000111547 -6.37029e-05      95.0687 
          40      1.61705 -0.000106395 -6.51118e-05      95.0687 
          40      1.67329 -0.000101145  -6.6378e-05      95.0687 
          40      1.73049 -9.58916e-05 -6.75088e-05      95.0687 
          40      1.78865 -9.07131e-05 -6.85097e-05      95.0687 
          40      1.84778 -8.56704e-05  -6.9384e-05      95.0687 
          40      1.90786 -8.08091e-05 -7.01326e-05      95.0686 
          40      1.96891 -7.61572e-05 -7.07553e-05      95.0686 
          40      2.03092 -7.17287e-05   -7.125e-05      95.0686 
          40      2.09389 -6.75232e-05 -7.16131e-05      95.0686 
          40      2.15782   -6.353e-05 -7.18402e-05      95.0686 
          40      2.22272 -5.97277e-05 -7.19265e-05      95.0686 
          40      2.28857 -5.60888e-05 -7.18667e-05      95.0686 
          40      2.35539 -5.25813e-05  -7.1656e-05      95.0686 
          40      2.42317 -4.91723e-05 -7.12905e-05      95.0686 
          40      2.49191 -4.58318e-05 -7.07678e-05      95.0686 
          40      2.56161 -4.25345e-05 -7.00872e-05      95.0685 
          40      2.63226 -3.92638e-05 -6.92508e-05      95.0685 
          40      2.70389  -3.6014e-05 -6.82633e-05      95.0685 
          40      2.77648 -3.27943e-05 -6.71334e-05      95.0685 
          40      2.85002 -2.96284e-05 -6.58731e-05      95.0685 
          40      2.92453 -2.65565e-05 -6.44986e-05      95.0685 
          40            3  -2.3635e-05 -6.30303e-05      95.0685 
          60            0           -0           -0      93.1393 
          60      0.00048 -9.53576e-06  3.68756e-11      93.1393 
          60     0.001922 -3.44605e-05  3.55012e-10      93.1393 
          60     0.004326 -6.55201e-05  1.52572e-09      93.1393 
          60      0.00769 -9.27291e-05  4.33025e-09      93.1393 
          60     0.012017 -0.000110627  9.52097e-09      93.1393 
          60     0.017304 -0.000120844  1.74899e-08      93.1393 
          60     0.023553  -0.00013038  2.79084e-08      93.1393 
          60     0.030763 -0.000145901  3.93326e-08      93.1393 
          60     0.038936 -0.000167785  4.88624e-08      93.1393 
          60     0.048069 -0.000189398  5.18705e-08      93.1393 
          60     0.058163 -0.000205374  4.18753e-08      93.1393 
          60     0.069219 -0.000222764  1.04985e-08      93.1393 
          60     0.081236 -0.000245934 -5.25647e-08      93.1393 
          60     0.094215 -0.000261829 -1.59039e-07      93.1393 
          60     0.108155 -0.000278765 -3.21713e-07      93.1393 
          60     0.123056 -0.000293901 -5.54537e-07      93.1393 
          60     0.138918 -0.000307088 -8.71297e-07      93.1393 
          60     0.155744 -0.000318173 -1.28524e-06      93.1393 
          60     0.173529  -0.00032703 -1.80844e-06      93.1393 
          60     0.192276 -0.000333614 -2.45192e-06      93.1393 
          60     0.211984 -0.000338003 -3.22489e-06      93.1393 
          60     0.232655 -0.000340398 -4.13403e-06      93.1393 
          60     0.254285 -0.000340997 -5.18119e-06      93.1393 
          60     0.276877 -0.000340048 -6.37242e-06      93.1393 
          60     0.300431 -0.000337878 -7.70626e-06      93.1393 
          60     0.324946 -0.000334798 -9.17634e-06      93.1393 
          60     0.350424 -0.000331121 -1.07773e-05      93.1393 
          60     0.376861 -0.000327146 -1.25035e-05      93.1393 
          60      0.40426 -0.000323142 -1.43486e-05      93.1393 
          60     0.432621 -0.000319334 -1.63038e-05      93.1393 
          60     0.461945 -0.000315896 -1.83571e-05      93.1393 
          60     0.492228 -0.000312945 -2.04928e-05      93.1393 
          60     0.523472 -0.000310526 -2.26932e-05      93.1393 
          60     0.555678 -0.000308623 -2.49426e-05      93.1393 
          60     0.588845 -0.000307146 -2.72347e-05      93.1393 
          60     0.622976 -0.000305874 -2.95693e-05      93.1393 
          60     0.658066 -0.000304753 -3.18704e-05      93.1393 
          60     0.694117 -0.000303537 -3.41281e-05      93.1393 
          60      0.73113 -0.000301813 -3.63384e-05      93.1393 
          60     0.769107 -0.000299244 -3.84915e-05      93.1393 
          60     0.808042 -0.000295582 -4.05727e-05      93.1393 
          60     0.847939 -0.000290666 -4.25649e-05      93.1393 
          60     0.888797 -0.000284424 -4.44498e-05      93.1393 
          60      0.93062 -0.000276873 -4.62109e-05      93.1393 
          60       0.9734 -0.000268109 -4.78354e-05      93.1393 
          60      1.01714 -0.000258294 -4.93171e-05      93.1393 
          60      1.06185 -0.000247641 -5.06578e-05      93.1393 
          60      1.10751 -0.000236395 -5.18685e-05      93.1393 
          60      1.15414 -0.000224814 -5.29692e-05      93.1393 
          60      1.20173 -0.000213144 -5.39862e-05      93.1393 
          60      1.25028 -0.000201598 -5.49474e-05      93.1393 
          60      1.29979 -0.000190337  -5.5874e-05      93.1393 