Variables = x, y, u, v, p

Zone, I=416, F=POINT
         -50            0            0            0      70.1183 
         -50     0.013333  0.000166596  1.71917e-08      70.1183 
         -50     0.053333  0.000143914 -3.35015e-08      70.1183 
         -50         0.12  0.000141485 -3.12238e-07      70.1183 
         -50     0.213332  0.000146661  -9.0862e-07      70.1183 
         -50     0.333332    0.0001554 -1.91138e-06      70.1183 
         -50         0.48  0.000162156 -3.24922e-06      70.1182 
         -50     0.653331  0.000163871 -5.38936e-06      70.1181 
         -50     0.853332  0.000159599 -7.54809e-06       70.118 
         -50         1.08  0.000153469 -8.99685e-06      70.1178 
         -50      1.33333  0.000148169 -1.09485e-05      70.1175 
         -50      1.61333  0.000142172 -1.17464e-05      70.1171 
         -50         1.92  0.000139792 -1.13548e-05      70.1166 
         -50      2.25333  0.000142722   -1.001e-05      70.1159 
         -50      2.61333  0.000143034 -1.06537e-05      70.1151 
         -50            3    0.0001388 -1.35899e-05      70.1141 
         -25            0  1.77799e-19  4.26691e-24      68.1645 
         -25     0.013333  0.000146311  5.01029e-09      68.1645 
         -25     0.053333  0.000137496  2.38086e-09      68.1645 
         -25         0.12  0.000143373  3.16827e-08      68.1645 
         -25     0.213332  0.000147458  2.37992e-07      68.1645 
         -25     0.333332  0.000148138  7.84516e-07      68.1645 
         -25         0.48  0.000147148  1.71222e-06      68.1645 
         -25     0.653331  0.000146527  2.80733e-06      68.1645 
         -25     0.853332  0.000144471    3.959e-06      68.1644 
         -25         1.08  0.000139974  4.90717e-06      68.1644 
         -25      1.33333  0.000134494   5.6979e-06      68.1643 
         -25      1.61333  0.000126665  6.05101e-06      68.1642 
         -25         1.92  0.000113877  6.22343e-06      68.1641 
         -25      2.25333   0.00010634  5.30735e-06      68.1639 
         -25      2.61333  0.000104508  3.85508e-06      68.1637 
         -25            3  0.000104189  4.19176e-06      68.1634 
           0            0            0            0      66.2913 
           0     0.013333  0.000456434 -0.000313937      66.2942 
           0     0.053333  0.000301694 -0.000156438      66.2985 
           0         0.12  0.000266908  -0.00010787      66.3033 
           0     0.213332  0.000257001 -8.54125e-05      66.3085 
           0     0.333332  0.000250111 -7.33516e-05      66.3139 
           0         0.48  0.000237561 -6.41774e-05      66.3195 
           0     0.653331  0.000223998 -5.72959e-05      66.3251 
           0     0.853332  0.000208789 -5.19546e-05      66.3306 
           0         1.08   0.00019092 -4.76766e-05      66.3361 
           0      1.33333  0.000171275 -4.40115e-05      66.3415 
           0      1.61333  0.000151423 -4.07297e-05      66.3467 
           0         1.92  0.000132448 -3.77671e-05      66.3518 
           0      2.25333  0.000118758 -3.49344e-05      66.3567 
           0      2.61333  0.000111447 -3.18626e-05      66.3614 
           0            3  0.000103901 -3.12204e-05      66.3659 
          20            0  1.69135e-19  1.98033e-23      65.1221 
          20     0.013333  0.000128897 -3.94511e-08      65.1221 
          20     0.053333  9.58133e-05 -9.41966e-07      65.1221 
          20         0.12  9.94293e-05 -4.19644e-06      65.1221 
          20     0.213332  0.000120091 -1.06251e-05      65.1221 
          20     0.333332  0.000132259  -2.0171e-05      65.1221 
          20         0.48  0.000135585 -3.20347e-05       65.122 
          20     0.653331  0.000147038 -4.43366e-05      65.1219 
          20     0.853332  0.000145192 -5.68908e-05      65.1217 
          20         1.08  0.000124059 -6.97082e-05      65.1215 
          20      1.33333  0.000106859 -8.04749e-05      65.1212 
          20      1.61333  9.77587e-05 -8.72918e-05      65.1207 
          20         1.92  9.54039e-05 -8.91841e-05      65.1202 
          20      2.25333  9.90553e-05 -8.61829e-05      65.1195 
          20      2.61333  0.000104226 -7.93386e-05      65.1187 
          20            3  0.000108444 -6.87867e-05      65.1177 
          40            0           -0           -0      63.7531 
          40     0.013333  0.000150299  5.68885e-08      63.7531 
          40     0.053333  0.000164973  9.01635e-07      63.7531 
          40         0.12  0.000155413  4.37297e-06      63.7531 
          40     0.213332   9.8961e-05  1.21973e-05      63.7531 
          40     0.333332  3.62658e-05  2.42883e-05      63.7531 
          40         0.48  9.54036e-06  3.91059e-05      63.7531 
          40     0.653331   2.3037e-05  5.50374e-05      63.7531 
          40     0.853332  4.66028e-05  7.02884e-05      63.7531 
          40         1.08  5.80685e-05  8.34552e-05       63.753 
          40      1.33333  6.39901e-05   9.3784e-05       63.753 
          40      1.61333  7.32064e-05   0.00010038       63.753 
          40         1.92  8.75182e-05  0.000102292       63.753 
          40      2.25333  0.000100224  9.94009e-05      63.7529 
          40      2.61333  0.000108102  9.25903e-05      63.7529 
          40            3  0.000112194  8.29174e-05      63.7528 
          60            0           -0           -0      62.4162 
          60     0.013333  0.000123311   1.3546e-07      62.4162 
          60     0.053333  5.96651e-05   1.9379e-06      62.4162 
          60         0.12 -5.90497e-05  8.07175e-06      62.4162 
          60     0.213332 -0.000202817  1.92899e-05      62.4162 
          60     0.333332  -0.00030156  3.34991e-05      62.4162 
          60         0.48 -0.000330398  4.86128e-05      62.4162 
          60     0.653331 -0.000293473  6.50373e-05      62.4162 
          60     0.853332 -0.000196548    8.393e-05      62.4161 
          60         1.08 -9.02999e-05  0.000102621      62.4161 
          60      1.33333 -2.07436e-05  0.000117018      62.4161 
          60      1.61333  3.83314e-05  0.000125861      62.4161 
          60         1.92  9.83205e-05  0.000128878      62.4161 
          60      2.25333  0.000150169  0.000125603      62.4161 
          60      2.61333  0.000184802  0.000117044      62.4161 
          60            3  0.000199647  0.000105708      62.4161 
          80            0           -0           -0      61.0865 
          80     0.013333  0.000116689  9.53667e-08      61.0865 
          80     0.053333   4.8467e-05  1.31872e-06      61.0865 
          80         0.12 -5.04088e-05  5.23957e-06      61.0865 
          80     0.213332  -0.00015403  1.19341e-05      61.0865 
          80     0.333332  -0.00022173  1.99377e-05      61.0865 
          80         0.48 -0.000247246  2.83015e-05      61.0865 
          80     0.653331 -0.000232192  3.78996e-05      61.0865 
          80     0.853332 -0.000164605  5.04824e-05      61.0865 
          80         1.08 -6.86701e-05  6.50477e-05      61.0865 
          80      1.33333  9.13111e-08  7.79602e-05      61.0865 
          80      1.61333  5.01853e-05  8.71941e-05      61.0865 
          80         1.92  0.000102112  9.25839e-05      61.0865 
          80      2.25333   0.00014645  9.36813e-05      61.0865 
          80      2.61333  0.000172813  9.01522e-05      61.0865 
          80            3  0.000179484  8.32367e-05      61.0865 
         100            0  1.53068e-19  6.98696e-26        59.76 
         100     0.013333  0.000108667  4.06738e-08        59.76 
         100     0.053333  3.30303e-05  5.20533e-07        59.76 
         100         0.12 -4.64611e-05  1.78475e-06        59.76 
         100     0.213332 -0.000101824  3.13693e-06        59.76 
         100     0.333332 -0.000113948  3.28095e-06        59.76 
         100         0.48 -9.84499e-05  1.70897e-06        59.76 
         100     0.653331 -7.42344e-05 -8.22881e-07        59.76 
         100     0.853332 -4.05275e-05 -2.86991e-06        59.76 
         100         1.08  3.04997e-06 -3.91098e-06        59.76 
         100      1.33333  4.14464e-05 -4.58604e-06        59.76 
         100      1.61333  7.56765e-05 -5.37528e-06        59.76 
         100         1.92  0.000110764  -6.0094e-06        59.76 
         100      2.25333  0.000137673 -6.51906e-06        59.76 
         100      2.61333  0.000153918 -6.94615e-06        59.76 
         100            3  0.000163875 -6.36589e-06        59.76 
         150            0           -0           -0      56.4506 
         150     0.013333  0.000131937 -5.47537e-08      56.4506 
         150     0.053333  0.000134399 -7.90934e-07      56.4506 
         150         0.12  0.000179695 -3.34735e-06      56.4506 
         150     0.213332   0.00024321 -8.21346e-06      56.4506 
         150     0.333332  0.000292976 -1.47283e-05      56.4506 
         150         0.48  0.000312454 -2.19323e-05      56.4506 
         150     0.653331  0.000304944 -2.95581e-05      56.4506 
         150     0.853332  0.000275307 -3.79084e-05      56.4506 
         150         1.08  0.000234197 -4.65885e-05      56.4506 
         150      1.33333  0.000198261 -5.43536e-05      56.4506 
         150      1.61333  0.000166739 -6.02077e-05      56.4506 
         150         1.92  0.000132693 -6.38022e-05      56.4506 
         150      2.25333  9.84498e-05 -6.46914e-05      56.4506 
         150      2.61333  7.15526e-05 -6.27743e-05      56.4506 
         150            3  5.79831e-05 -5.85596e-05      56.4506 
         200            0            0            0      53.1482 
         200     0.013333  9.45312e-05 -5.34713e-08      53.1482 
         200     0.053333  5.54681e-06 -8.64286e-07      53.1482 
         200         0.12 -3.90163e-05 -4.27689e-06      53.1482 
         200     0.213332 -7.24932e-06 -1.24753e-05      53.1482 
         200     0.333332  7.77334e-05 -2.64312e-05      53.1482 
         200         0.48  0.000159625 -4.53594e-05      53.1482 
         200     0.653331   0.00020247 -6.77394e-05      53.1482 
         200     0.853332  0.000204545 -9.20851e-05      53.1482 
         200         1.08   0.00018797 -0.000116668      53.1482 
         200      1.33333  0.000174038  -0.00013951      53.1482 
         200      1.61333  0.000164674 -0.000158888      53.1482 
         200         1.92     0.000154 -0.000173239      53.1482 
         200      2.25333  0.000142449 -0.000180965      53.1482 
         200      2.61333  0.000131529 -0.000181606      53.1482 
         200            3  0.000121324 -0.000175772      53.1482 
         250            0           -0           -0      49.8522 
         250     0.013333  0.000108457  -4.9159e-08      49.8522 
         250     0.053333  5.25566e-05 -7.72064e-07      49.8522 
         250         0.12  3.73508e-05 -3.66169e-06      49.8522 
         250     0.213332  7.09676e-05 -1.01558e-05      49.8522 
         250     0.333332  0.000124604 -2.04142e-05      49.8522 
         250         0.48   0.00015845 -3.33654e-05      49.8522 
         250     0.653331  0.000158322 -4.78633e-05      49.8522 
         250     0.853332  0.000134198 -6.30354e-05      49.8522 
         250         1.08  0.000110742 -7.75809e-05      49.8522 
         250      1.33333  0.000105604 -8.99299e-05      49.8522 
         250      1.61333  0.000109256 -9.93696e-05      49.8522 
         250         1.92   0.00011099 -0.000105529      49.8522 
         250      2.25333  0.000111667 -0.000107764      49.8522 
         250      2.61333  0.000113814 -0.000105772      49.8522 
         250            3  0.000118461 -9.98454e-05      49.8522 
         300            0            0            0      46.5641 
         300     0.013333   9.8749e-05 -7.51392e-08      46.5641 
         300     0.053333  2.51739e-05 -1.16483e-06      46.5641 
         300         0.12  7.52199e-06 -5.46804e-06      46.5641 
         300     0.213332    6.675e-05 -1.51408e-05      46.5641 
         300     0.333332  0.000165802 -3.06651e-05      46.5641 
         300         0.48  0.000245318 -5.07917e-05      46.5641 
         300     0.653331  0.000275584 -7.40126e-05      46.5641 
         300     0.853332  0.000258415 -9.93355e-05      46.5641 
         300         1.08  0.000217506 -0.000125413      46.5641 
         300      1.33333  0.000185124  -0.00014996      46.5641 
         300      1.61333   0.00016794 -0.000170941      46.5641 
         300         1.92  0.000151309  -0.00018709      46.5641 
         300      2.25333   0.00013412 -0.000197043      46.5641 
         300      2.61333  0.000118936 -0.000199831      46.5641 
         300            3  0.000107535 -0.000195399      46.5641 
         350            0           -0           -0      43.2821 
         350     0.013333  9.40988e-05 -1.06703e-08      43.2821 
         350     0.053333 -8.98226e-06 -2.22804e-07      43.2821 
         350         0.12 -0.000102729 -1.38622e-06      43.2821 
         350     0.213332 -0.000154551 -4.76583e-06      43.2821 
         350     0.333332 -0.000160856 -1.12682e-05      43.2821 
         350         0.48 -0.000150677 -2.07788e-05      43.2821 
         350     0.653331 -0.000149705 -3.24975e-05      43.2821 
         350     0.853332 -0.000159576 -4.52986e-05      43.2821 
         350         1.08 -0.000157412  -5.7581e-05      43.2821 
         350      1.33333 -0.000124291  -6.7818e-05      43.2821 
         350      1.61333 -7.33649e-05 -7.56997e-05      43.2821 
         350         1.92 -2.12063e-05 -8.13816e-05      43.2821 
         350      2.25333  3.19167e-05 -8.44246e-05      43.2821 
         350      2.61333  8.40912e-05 -8.44754e-05      43.2821 
         350            3  0.000129946  -8.1484e-05      43.2821 
         400            0           -0           -0      40.0054 
         400     0.013333  5.15772e-05 -4.75595e-08      40.0054 
         400     0.053333 -0.000146499 -8.51421e-07      40.0054 
         400         0.12 -0.000310962 -4.72707e-06      40.0054 
         400     0.213332  -0.00034572 -1.52714e-05      40.0054 
         400     0.333332 -0.000251061 -3.50812e-05      40.0054 
         400         0.48 -0.000117138 -6.38079e-05      40.0054 
         400     0.653331 -2.64927e-05 -9.88922e-05      40.0054 
         400     0.853332  3.39492e-06 -0.000137266      40.0054 
         400         1.08  9.68924e-06 -0.000175826      40.0054 
         400      1.33333  3.11748e-05 -0.000211837      40.0054 
         400      1.61333   6.5063e-05 -0.000243793      40.0054 
         400         1.92  9.59455e-05 -0.000270495      40.0054 
         400      2.25333  0.000123579 -0.000289801      40.0054 
         400      2.61333  0.000147643 -0.000299963      40.0054 
         400            3  0.000165214 -0.000300136      40.0054 
         450            0            0            0      36.7337 
         450     0.013333    7.421e-05  1.18066e-07      36.7337 
         450     0.053333 -0.000111502  1.62442e-06      36.7337 
         450         0.12 -0.000370687  6.35487e-06      36.7337 
         450     0.213332 -0.000619071  1.39306e-05      36.7337 
         450     0.333332 -0.000762048  2.14391e-05      36.7337 
         450         0.48 -0.000790616  2.63668e-05      36.7337 
         450     0.653331 -0.000756412  2.90894e-05      36.7337 
         450     0.853332 -0.000685936  3.24797e-05      36.7337 
         450         1.08 -0.000563296   3.9434e-05      36.7337 
         450      1.33333 -0.000404153  4.97292e-05      36.7337 
         450      1.61333 -0.000262893  6.01823e-05      36.7337 
         450         1.92 -0.000140747  6.86772e-05      36.7337 
         450      2.25333 -1.90452e-05  7.51326e-05      36.7337 
         450      2.61333  0.000100829  7.91363e-05      36.7337 
         450            3  0.000204993  8.03073e-05      36.7338 
         500            0           -0           -0      33.4665 
         500     0.013333   0.00017609  1.92162e-07      33.4665 
         500     0.053333  0.000221614  2.93823e-06      33.4665 
         500         0.12  0.000145924  1.35727e-05      33.4665 
         500     0.213332 -0.000109851  3.69883e-05      33.4665 
         500     0.333332 -0.000432277  7.37283e-05      33.4665 
         500         0.48  -0.00066661  0.000120035      33.4665 
         500     0.653331 -0.000745481  0.000171807      33.4665 
         500     0.853332 -0.000686353   0.00022717      33.4665 
         500         1.08 -0.000544042  0.000284681      33.4665 
         500      1.33333  -0.00040053   0.00034046      33.4665 
         500      1.61333 -0.000302858  0.000389857      33.4665 
         500         1.92 -0.000214189  0.000430559      33.4665 
         500      2.25333 -0.000114117  0.000460473      33.4665 
         500      2.61333 -7.19124e-06  0.000477206      33.4665 
         500            3   9.3306e-05  0.000478984      33.4665 
         550            0            0            0      30.2028 
         550     0.013333  0.000163575 -2.42423e-07      30.2028 
         550     0.053333  0.000306636 -3.55296e-06      30.2028 
         550         0.12  0.000663494 -1.54635e-05      30.2028 
         550     0.213332   0.00116661 -3.94433e-05      30.2028 
         550     0.333332   0.00163338 -7.36705e-05      30.2028 
         550         0.48    0.0019194 -0.000113064      30.2028 
         550     0.653331   0.00201184  -0.00015405      30.2028 
         550     0.853332   0.00195754 -0.000196762      30.2028 
         550         1.08    0.0017823 -0.000243135      30.2028 
         550      1.33333   0.00152193 -0.000292692      30.2028 
         550      1.61333    0.0012496   -0.0003411      30.2028 
         550         1.92  0.000992537 -0.000383623      30.2028 
         550      2.25333  0.000724185 -0.000417476      30.2028 
         550      2.61333  0.000442963 -0.000440272      30.2027 
         550            3  0.000174318 -0.000450068      30.2027 
         600            0           -0           -0      26.9402 
         600     0.013333  0.000121354  1.71454e-07      26.9402 
         600     0.053333   3.4772e-05  2.52437e-06      26.9402 
         600         0.12 -0.000172812  1.10823e-05      26.9402 
         600     0.213332 -0.000493068  2.86406e-05      26.9402 
         600     0.333332 -0.000811123  5.44329e-05      26.9402 
         600         0.48  -0.00102319  8.52597e-05      26.9402 
         600     0.653331  -0.00110706  0.000118615      26.9402 
         600     0.853332  -0.00108622  0.000154371      26.9402 
         600         1.08 -0.000974227  0.000193772      26.9402 
         600      1.33333 -0.000794794  0.000236489      26.9402 
         600      1.61333 -0.000607099  0.000279102      26.9402 
         600         1.92   -0.0004419  0.000317484      26.9402 
         600      2.25333 -0.000276432  0.000349228      26.9402 
         600      2.61333 -0.000103644  0.000372169      26.9402 
         600            3  6.26459e-05  0.000384433      26.9402 
         650            0            0            0      23.6824 
         650     0.013333  7.67601e-05 -7.95894e-08      23.6824 
         650     0.053333 -5.17229e-05 -1.23793e-06      23.6824 
         650         0.12 -0.000128991 -5.89317e-06      23.6824 
         650     0.213332 -9.75283e-05 -1.67814e-05      23.6824 
         650     0.333332  2.68695e-05 -3.53347e-05      23.6824 
         650         0.48  0.000172637 -6.10167e-05      23.6824 
         650     0.653331  0.000278577 -9.22519e-05      23.6824 
         650     0.853332  0.000320875 -0.000127721      23.6824 
         650         1.08  0.000303766 -0.000166542      23.6824 
         650      1.33333  0.000253688  -0.00020727      23.6824 
         650      1.61333   0.00020897 -0.000247299      23.6824 
         650         1.92   0.00018502 -0.000283883      23.6824 
         650      2.25333  0.000166845 -0.000314963      23.6824 
         650      2.61333  0.000147036 -0.000338541      23.6824 
         650            3  0.000127173 -0.000352858      23.6824 
         700            0           -0           -0      20.4282 
         700     0.013333  0.000184822 -4.55567e-08      20.4282 
         700     0.053333  0.000328756 -6.30463e-07      20.4282 
         700         0.12  0.000557921 -2.48763e-06      20.4282 
         700     0.213332  0.000795131 -5.47886e-06      20.4282 
         700     0.333332  0.000969084 -8.23716e-06      20.4282 
         700         0.48     0.001051  -9.0611e-06      20.4282 
         700     0.653331   0.00106356 -7.07264e-06      20.4282 
         700     0.853332   0.00104303 -2.58161e-06      20.4282 
         700         1.08   0.00100319  3.21473e-06      20.4282 
         700      1.33333  0.000934211  8.92809e-06      20.4282 
         700      1.61333  0.000830878  1.36703e-05      20.4282 
         700         1.92  0.000707379  1.76024e-05      20.4282 
         700      2.25333  0.000571629  2.08911e-05      20.4282 
         700      2.61333  0.000426783  2.34904e-05      20.4282 
         700            3  0.000279042  2.52729e-05      20.4282 
         750            0            0            0      17.1774 
         750     0.013333   0.00019447  1.53876e-08      17.1774 
         750     0.053333  0.000343887  2.86119e-07      17.1774 
         750         0.12  0.000528765  1.68743e-06      17.1774 
         750     0.213332  0.000652681  5.88901e-06      17.1774 
         750     0.333332  0.000671976   1.4774e-05      17.1774 
         750         0.48  0.000606854  2.94017e-05      17.1774 
         750     0.653331  0.000513575  4.95421e-05      17.1774 
         750     0.853332   0.00043838  7.41713e-05      17.1774 
         750         1.08  0.000397601   0.00010211      17.1774 
         750      1.33333  0.000379374  0.000132006      17.1774 
         750      1.61333  0.000358031   0.00016204      17.1774 
         750         1.92  0.000319262  0.000190544      17.1774 
         750      2.25333  0.000270588  0.000215891      17.1774 
         750      2.61333   0.00021756  0.000236793      17.1774 
         750            3  0.000162944  0.000251967      17.1774 
         800            0           -0           -0      13.9299 
         800     0.013333  0.000150979  1.70024e-07      13.9299 
         800     0.053333  0.000132703  2.59792e-06      13.9299 
         800         0.12 -2.65147e-05    1.205e-05      13.9299 
         800     0.213332 -0.000381207   3.3205e-05      13.9299 
         800     0.333332 -0.000822008  6.72291e-05      13.9299 
         800         0.48  -0.00117841   0.00011101      13.9299 
         800     0.653331  -0.00135566  0.000159983      13.9299 
         800     0.853332  -0.00136508  0.000211214      13.9299 
         800         1.08  -0.00126294  0.000263628      13.9299 
         800      1.33333  -0.00110842  0.000316042      13.9299 
         800      1.61333 -0.000945605  0.000366359      13.9299 
         800         1.92 -0.000783121  0.000412477      13.9299 
         800      2.25333 -0.000606297  0.000452091      13.9299 
         800      2.61333 -0.000410819  0.000482936      13.9299 
         800            3 -0.000205781  0.000502655        13.93 
         850            0           -0           -0      10.6856 
         850     0.013333 -0.000157523  2.73965e-09      10.6856 
         850     0.053333 -0.000920016 -2.65055e-07      10.6856 
         850         0.12  -0.00181406 -3.29358e-06      10.6856 
         850     0.213332  -0.00246865  -1.5738e-05      10.6856 
         850     0.333332  -0.00267288 -4.60197e-05      10.6856 
         850         0.48  -0.00250981 -9.88089e-05      10.6856 
         850     0.653331  -0.00222574   -0.0001724      10.6856 
         850     0.853332  -0.00200804 -0.000260926      10.6856 
         850         1.08  -0.00187838 -0.000357062      10.6856 
         850      1.33333  -0.00173736 -0.000453389      10.6856 
         850      1.61333  -0.00150639 -0.000544201      10.6856 
         850         1.92   -0.0012172 -0.000627268      10.6856 
         850      2.25333 -0.000910561 -0.000701057      10.6856 
         850      2.61333 -0.000592804 -0.000761727      10.6856 
         850            3 -0.000263919 -0.000804838      10.6856 
         900            0           -0           -0        7.446 
         900     0.013333  0.000144915 -3.21276e-07        7.446 
         900     0.053333  0.000274383 -4.78555e-06        7.446 
         900         0.12  0.000712893 -2.14126e-05        7.446 
         900     0.213332   0.00144638 -5.66901e-05        7.446 
         900     0.333332   0.00224275 -0.000110499        7.446 
         900         0.48   0.00283653 -0.000176815        7.446 
         900     0.653331   0.00312654 -0.000249287        7.446 
         900     0.853332   0.00315713 -0.000325713        7.446 
         900         1.08   0.00298635 -0.000407738        7.446 
         900      1.33333   0.00265471 -0.000496425        7.446 
         900      1.61333   0.00225037 -0.000588282        7.446 
         900         1.92   0.00187831 -0.000675847      7.44599 
         900      2.25333   0.00151992 -0.000754041      7.44598 
         900      2.61333   0.00114058 -0.000818487      7.44597 
         900            3  0.000738506 -0.000865229      7.44594 
         950            0           -0           -0      4.20764 
         950     0.013333  0.000350377 -5.74249e-08      4.20764 
         950     0.053333  0.000935769 -6.72417e-07      4.20764 
         950         0.12   0.00172466 -1.73546e-06      4.20764 
         950     0.213332   0.00243657 -3.40792e-07      4.20764 
         950     0.333332   0.00286141  8.78166e-06      4.20764 
         950         0.48   0.00297105  3.00704e-05      4.20764 
         950     0.653331   0.00289234  6.46225e-05      4.20764 
         950     0.853332   0.00277237  0.000110393      4.20764 
         950         1.08   0.00267212  0.000163336      4.20764 
         950      1.33333   0.00254617  0.000218193      4.20764 
         950      1.61333   0.00232075  0.000269699      4.20764 
         950         1.92   0.00200019  0.000315408      4.20763 
         950      2.25333   0.00164194  0.000355512      4.20762 
         950      2.61333   0.00126391  0.000388739      4.20761 
         950            3  0.000862736  0.000413088      4.20759 
        1000            0           -0           -0     0.971427 
        1000     0.013333   0.00033378  6.94867e-08     0.971427 
        1000     0.053333  0.000843473  1.25948e-06     0.971427 
        1000         0.12   0.00145253  7.08766e-06     0.971427 
        1000     0.213332   0.00187576  2.37262e-05     0.971427 
        1000     0.333332   0.00195816  5.76062e-05     0.971428 
        1000         0.48   0.00175266  0.000111823     0.971428 
        1000     0.653331     0.001446  0.000184376     0.971428 
        1000     0.853332   0.00120019  0.000270322     0.971428 
        1000         1.08   0.00106175    0.0003645     0.971428 
        1000      1.33333  0.000985038  0.000462564     0.971427 
        1000      1.61333  0.000906672   0.00056073     0.971425 
        1000         1.92  0.000790911  0.000655081      0.97142 
        1000      2.25333  0.000647167  0.000742669     0.971413 
        1000      2.61333  0.000487609  0.000818992     0.971403 
        1000            3   0.00031866  0.000879561     0.971389 
