Variables = x, y, u, v, p

Zone, I=2080, F=POINT
         -50            0            0            0     -172.621 
         -50      0.00048 -3.44287e-05 -3.50453e-09     -172.621 
         -50     0.001922 -0.000120989 -1.32611e-08     -172.621 
         -50     0.004326 -0.000218266   -2.733e-08     -172.621 
         -50      0.00769 -0.000283212 -4.35404e-08     -172.621 
         -50     0.012017 -0.000295464 -6.05549e-08     -172.621 
         -50     0.017304   -0.0002682 -7.83628e-08     -172.621 
         -50     0.023553 -0.000237439  -9.8017e-08     -172.621 
         -50     0.030763 -0.000233293 -1.20536e-07     -172.621 
         -50     0.038936 -0.000252462 -1.45769e-07     -172.621 
         -50     0.048069 -0.000260026 -1.72148e-07     -172.621 
         -50     0.058163 -0.000236269 -1.98052e-07     -172.621 
         -50     0.069219 -0.000228787 -2.23319e-07     -172.621 
         -50     0.081236 -0.000242463 -2.45015e-07     -172.621 
         -50     0.094215 -0.000228497 -2.60015e-07     -172.621 
         -50     0.108155 -0.000226918 -2.66724e-07     -172.621 
         -50     0.123056 -0.000221436 -2.61666e-07     -172.621 
         -50     0.138918 -0.000217097 -2.40981e-07     -172.621 
         -50     0.155744 -0.000214788 -1.99501e-07     -172.621 
         -50     0.173529 -0.000212895 -1.31705e-07     -172.621 
         -50     0.192276 -0.000210009 -3.28359e-08     -172.621 
         -50     0.211984 -0.000207165  1.00264e-07     -172.621 
         -50     0.232655 -0.000206646  2.69874e-07     -172.621 
         -50     0.254285 -0.000204498  4.77728e-07     -172.621 
         -50     0.276877 -0.000203926  7.08183e-07     -172.621 
         -50     0.300431 -0.000203282  9.63478e-07     -172.621 
         -50     0.324946 -0.000202735   1.2344e-06     -172.621 
         -50     0.350424 -0.000202369  1.51002e-06     -172.621 
         -50     0.376861 -0.000202189  1.77963e-06     -172.621 
         -50      0.40426 -0.000202149  2.03512e-06     -172.621 
         -50     0.432621 -0.000202176  2.27281e-06     -172.621 
         -50     0.461945 -0.000202212  2.49447e-06     -172.621 
         -50     0.492228 -0.000202236  2.70622e-06     -172.621 
         -50     0.523472 -0.000202278  2.91404e-06     -172.621 
         -50     0.555678  -0.00020239  3.11383e-06     -172.621 
         -50     0.588845 -0.000202559  3.27365e-06     -172.621 
         -50     0.622976 -0.000202706  3.53683e-06     -172.621 
         -50     0.658066 -0.000203061  4.08825e-06      -172.62 
         -50     0.694117 -0.000203555  4.63911e-06      -172.62 
         -50      0.73113 -0.000204215  5.17202e-06      -172.62 
         -50     0.769107 -0.000205058  5.67322e-06      -172.62 
         -50     0.808042 -0.000206091  6.13277e-06      -172.62 
         -50     0.847939 -0.000207313  6.54472e-06      -172.62 
         -50     0.888797 -0.000208714  6.90677e-06      -172.62 
         -50      0.93062 -0.000210283  7.21997e-06      -172.62 
         -50       0.9734 -0.000212005  7.48802e-06      -172.62 
         -50      1.01714 -0.000213866  7.71674e-06      -172.62 
         -50      1.06185 -0.000215856    7.913e-06      -172.62 
         -50      1.10751 -0.000217971  8.08387e-06      -172.62 
         -50      1.15414 -0.000220213  8.23565e-06     -172.619 
         -50      1.20173 -0.000222592  8.37295e-06     -172.619 
         -50      1.25028 -0.000225121  8.49816e-06     -172.619 
         -50      1.29979 -0.000227809  8.61111e-06     -172.619 
         -50      1.35026 -0.000230657  8.70949e-06     -172.619 
         -50       1.4017 -0.000233635  8.78992e-06     -172.619 
         -50      1.45409 -0.000236665  8.85028e-06     -172.619 
         -50      1.50745 -0.000239614  8.88024e-06     -172.618 
         -50      1.56176 -0.000243585  8.38142e-06     -172.618 
         -50      1.61705 -0.000247039  8.12341e-06     -172.618 
         -50      1.67329 -0.000249958  8.03781e-06     -172.618 
         -50      1.73049 -0.000252348  8.05873e-06     -172.618 
         -50      1.78865  -0.00025424  8.12376e-06     -172.617 
         -50      1.84778 -0.000255689  8.17498e-06     -172.617 
         -50      1.90786 -0.000256767  8.15984e-06     -172.617 
         -50      1.96891 -0.000257563  8.03211e-06     -172.617 
         -50      2.03092 -0.000258178  7.75268e-06     -172.616 
         -50      2.09389 -0.000258717  7.29025e-06     -172.616 
         -50      2.15782 -0.000259287  6.62221e-06     -172.616 
         -50      2.22272 -0.000259993  5.73484e-06     -172.615 
         -50      2.28857 -0.000260926  4.62395e-06     -172.615 
         -50      2.35539 -0.000262161  3.29487e-06     -172.615 
         -50      2.42317 -0.000263752  1.76241e-06     -172.614 
         -50      2.49191 -0.000265723  5.10259e-08     -172.614 
         -50      2.56161  -0.00026807 -1.80648e-06     -172.614 
         -50      2.63226 -0.000270749  -3.7694e-06     -172.613 
         -50      2.70389 -0.000273683 -5.79075e-06     -172.613 
         -50      2.77648 -0.000276756 -7.81817e-06     -172.612 
         -50      2.85002  -0.00027982 -9.79725e-06     -172.612 
         -50      2.92453 -0.000282701 -1.16736e-05     -172.611 
         -50            3 -0.000285207 -1.33963e-05     -172.611 
         -25            0 -2.95898e-19 -8.28976e-24     -167.928 
         -25      0.00048 -2.94143e-05 -8.39562e-10     -167.928 
         -25     0.001922 -0.000103417 -3.12783e-09     -167.928 
         -25     0.004326 -0.000186749 -6.25896e-09     -167.928 
         -25      0.00769 -0.000242755 -9.49585e-09     -167.928 
         -25     0.012017 -0.000254092 -1.22405e-08     -167.928 
         -25     0.017304 -0.000231964 -1.41637e-08     -167.928 
         -25     0.023553  -0.00020702 -1.51349e-08     -167.928 
         -25     0.030763 -0.000204874 -1.49506e-08     -167.928 
         -25     0.038936 -0.000222694 -1.30529e-08     -167.928 
         -25     0.048069 -0.000230727 -8.49959e-09     -167.928 
         -25     0.058163 -0.000212158 -3.38409e-10     -167.928 
         -25     0.069219 -0.000207473  1.19712e-08     -167.928 
         -25     0.081236 -0.000220791  2.96473e-08     -167.928 
         -25     0.094215 -0.000210533  5.37596e-08     -167.928 
         -25     0.108155  -0.00021074  8.46858e-08     -167.928 
         -25     0.123056 -0.000207509  1.23406e-07     -167.928 
         -25     0.138918 -0.000205106  1.70448e-07     -167.928 
         -25     0.155744 -0.000204259  2.26209e-07     -167.928 
         -25     0.173529 -0.000203574  2.90925e-07     -167.928 
         -25     0.192276 -0.000201838  3.64735e-07     -167.928 
         -25     0.211984 -0.000199924  4.47689e-07     -167.928 
         -25     0.232655  -0.00019978  5.39812e-07     -167.928 
         -25     0.254285 -0.000198049  6.41072e-07     -167.928 
         -25     0.276877 -0.000197475  7.51478e-07     -167.928 
         -25     0.300431 -0.000196675  8.72343e-07     -167.928 
         -25     0.324946 -0.000195818  1.00501e-06     -167.928 
         -25     0.350424 -0.000195002  1.15063e-06     -167.928 
         -25     0.376861  -0.00019426  1.30984e-06     -167.928 
         -25      0.40426 -0.000193579  1.48245e-06     -167.928 
         -25     0.432621 -0.000192924  1.66709e-06     -167.928 
         -25     0.461945 -0.000192265  1.86094e-06     -167.928 
         -25     0.492228 -0.000191602  2.05956e-06     -167.928 
         -25     0.523472 -0.000190975  2.25715e-06     -167.928 
         -25     0.555678 -0.000190442  2.44704e-06     -167.928 
         -25     0.588845 -0.000190001  2.62291e-06     -167.928 
         -25     0.622976 -0.000189582  2.78399e-06     -167.928 
         -25     0.658066 -0.000189337  2.95121e-06     -167.927 
         -25     0.694117 -0.000189239  3.12222e-06     -167.927 
         -25      0.73113 -0.000189329  3.29052e-06     -167.927 
         -25     0.769107 -0.000189631   3.4514e-06     -167.927 
         -25     0.808042 -0.000190154  3.60183e-06     -167.927 
         -25     0.847939 -0.000190887  3.74039e-06     -167.927 
         -25     0.888797 -0.000191808  3.86691e-06     -167.927 
         -25      0.93062 -0.000192879  3.98218e-06     -167.927 
         -25       0.9734 -0.000194052  4.08739e-06     -167.927 
         -25      1.01714 -0.000195274   4.1838e-06     -167.927 
         -25      1.06185 -0.000196487  4.27211e-06     -167.927 
         -25      1.10751 -0.000197635  4.35214e-06     -167.927 
         -25      1.15414 -0.000198669   4.4225e-06     -167.927 
         -25      1.20173 -0.000199549  4.48049e-06     -167.927 
         -25      1.25028 -0.000200247  4.52248e-06     -167.927 
         -25      1.29979 -0.000200751  4.54463e-06     -167.927 
         -25      1.35026 -0.000201061  4.54436e-06     -167.927 
         -25       1.4017 -0.000201185  4.52265e-06     -167.927 
         -25      1.45409 -0.000201134  4.48752e-06     -167.927 
         -25      1.50745 -0.000200911  4.45561e-06     -167.927 
         -25      1.56176 -0.000200944  4.31975e-06     -167.927 
         -25      1.61705 -0.000200789  4.24533e-06     -167.927 
         -25      1.67329 -0.000200501  4.20073e-06     -167.927 
         -25      1.73049 -0.000200134  4.15893e-06     -167.927 
         -25      1.78865 -0.000199741  4.09764e-06     -167.927 
         -25      1.84778 -0.000199372  3.99942e-06     -167.927 
         -25      1.90786 -0.000199076  3.85156e-06     -167.927 
         -25      1.96891 -0.000198897  3.64594e-06     -167.927 
         -25      2.03092 -0.000198875  3.37875e-06     -167.926 
         -25      2.09389 -0.000199043  3.05006e-06     -167.926 
         -25      2.15782 -0.000199429  2.66347e-06     -167.926 
         -25      2.22272 -0.000200052  2.22528e-06     -167.926 
         -25      2.28857 -0.000200923  1.74407e-06     -167.926 
         -25      2.35539 -0.000202046  1.22978e-06     -167.926 
         -25      2.42317 -0.000203412  6.93012e-07     -167.926 
         -25      2.49191 -0.000205007  1.44357e-07     -167.926 
         -25      2.56161 -0.000206803 -4.06605e-07     -167.926 
         -25      2.63226 -0.000208764 -9.51855e-07     -167.926 
         -25      2.70389 -0.000210846 -1.48563e-06     -167.926 
         -25      2.77648 -0.000212997 -2.00464e-06     -167.925 
         -25      2.85002 -0.000215157 -2.50862e-06     -167.925 
         -25      2.92453 -0.000217262 -2.99999e-06     -167.925 
         -25            3 -0.000219247 -3.48354e-06     -167.925 
           0            0            0            0     -163.424 
           0      0.00048 -0.000113571  7.63666e-05     -163.425 
           0     0.001922 -0.000393217  0.000265064     -163.425 
           0     0.004326 -0.000689415  0.000466586     -163.427 
           0      0.00769   -0.0008516  0.000579058     -163.428 
           0     0.012017 -0.000818517  0.000557701      -163.43 
           0     0.017304 -0.000655086  0.000440953     -163.432 
           0     0.023553 -0.000504808   0.00032274     -163.433 
           0     0.030763 -0.000475269  0.000280385     -163.435 
           0     0.038936 -0.000535293  0.000306016     -163.437 
           0     0.048069 -0.000535421  0.000311505     -163.439 
           0     0.058163 -0.000408019    0.0002457     -163.441 
           0     0.069219 -0.000370811  0.000224377     -163.443 
           0     0.081236 -0.000428838  0.000254562     -163.446 
           0     0.094215 -0.000354457  0.000213349     -163.448 
           0     0.108155 -0.000338364  0.000208774      -163.45 
           0     0.123056 -0.000308903  0.000195776     -163.452 
           0     0.138918 -0.000285238  0.000184499     -163.455 
           0     0.155744  -0.00026945  0.000177015     -163.457 
           0     0.173529 -0.000254157  0.000170463     -163.459 
           0     0.192276 -0.000234184  0.000162185     -163.462 
           0     0.211984 -0.000215415  0.000153965     -163.464 
           0     0.232655 -0.000207431  0.000149611     -163.467 
           0     0.254285  -0.00019098  0.000141877     -163.469 
           0     0.276877  -0.00018079  0.000136627     -163.472 
           0     0.300431 -0.000170794  0.000131295     -163.474 
           0     0.324946 -0.000161704  0.000126152     -163.476 
           0     0.350424 -0.000153575  0.000121266     -163.479 
           0     0.376861 -0.000146321  0.000116638     -163.481 
           0      0.40426 -0.000139839  0.000112232     -163.484 
           0     0.432621 -0.000134031  0.000108029     -163.487 
           0     0.461945 -0.000128806  0.000104012     -163.489 
           0     0.492228 -0.000124134  0.000100156     -163.492 
           0     0.523472 -0.000119962  9.64917e-05     -163.494 
           0     0.555678 -0.000116268  9.29616e-05     -163.497 
           0     0.588845 -0.000113042  8.95605e-05     -163.499 
           0     0.622976 -0.000110291  8.62828e-05     -163.502 
           0     0.658066 -0.000108023   8.3128e-05     -163.504 
           0     0.694117 -0.000106257  8.00823e-05     -163.507 
           0      0.73113 -0.000105011  7.71331e-05     -163.509 
           0     0.769107 -0.000104297  7.42704e-05     -163.512 
           0     0.808042 -0.000104121  7.14892e-05     -163.514 
           0     0.847939 -0.000104481    6.879e-05     -163.517 
           0     0.888797 -0.000105362  6.61819e-05     -163.519 
           0      0.93062 -0.000106729  6.36397e-05     -163.522 
           0       0.9734 -0.000108576  6.11701e-05     -163.524 
           0      1.01714  -0.00011086  5.87737e-05     -163.527 
           0      1.06185 -0.000113535    5.645e-05     -163.529 
           0      1.10751 -0.000116573  5.41973e-05     -163.532 
           0      1.15414 -0.000119963  5.20131e-05     -163.534 
           0      1.20173 -0.000123688  4.98972e-05     -163.537 
           0      1.25028 -0.000127699  4.78431e-05     -163.539 
           0      1.29979 -0.000132029  4.58764e-05     -163.542 
           0      1.35026 -0.000136598  4.39834e-05     -163.544 
           0       1.4017  -0.00014142   4.2138e-05     -163.547 
           0      1.45409 -0.000146492  4.03464e-05     -163.549 
           0      1.50745 -0.000151776  3.86264e-05     -163.551 
           0      1.56176 -0.000157215   3.6992e-05     -163.554 
           0      1.61705  -0.00016274   3.5443e-05     -163.556 
           0      1.67329 -0.000168273  3.39637e-05     -163.558 
           0      1.73049 -0.000173737    3.253e-05     -163.561 
           0      1.78865 -0.000179043  3.11355e-05     -163.563 
           0      1.84778 -0.000184084  2.98352e-05     -163.565 
           0      1.90786 -0.000188805  2.86954e-05     -163.568 
           0      1.96891 -0.000193262  2.74749e-05      -163.57 
           0      2.03092  -0.00019741  2.63806e-05     -163.572 
           0      2.09389 -0.000201261   2.5395e-05     -163.574 
           0      2.15782 -0.000204776   2.4395e-05     -163.577 
           0      2.22272  -0.00020794    2.342e-05     -163.579 
           0      2.28857 -0.000210736  2.25448e-05     -163.581 
           0      2.35539 -0.000213155  2.18017e-05     -163.583 
           0      2.42317 -0.000215189  2.11562e-05     -163.585 
           0      2.49191 -0.000216825  2.05521e-05     -163.587 
           0      2.56161 -0.000218026  2.00514e-05      -163.59 
           0      2.63226 -0.000218831  1.96329e-05     -163.592 
           0      2.70389 -0.000219304   1.9247e-05     -163.594 
           0      2.77648  -0.00021948  1.89287e-05     -163.596 
           0      2.85002 -0.000219444  1.85951e-05     -163.598 
           0      2.92453  -0.00021927  1.82115e-05       -163.6 
           0            3 -0.000219011  1.77748e-05     -163.602 
          20            0 -3.09498e-19 -3.94631e-23     -160.608 
          20      0.00048 -3.08389e-05 -4.01749e-09     -160.608 
          20     0.001922  -0.00010927 -1.52298e-08     -160.608 
          20     0.004326 -0.000200372  -3.1572e-08     -160.608 
          20      0.00769 -0.000267766 -5.10516e-08     -160.608 
          20     0.012017 -0.000294065 -7.32546e-08     -160.608 
          20     0.017304 -0.000289968 -1.00202e-07     -160.608 
          20     0.023553 -0.000285316 -1.36308e-07     -160.608 
          20     0.030763 -0.000304919 -1.87315e-07     -160.608 
          20     0.038936 -0.000345489 -2.59182e-07     -160.608 
          20     0.048069 -0.000377128 -3.57986e-07     -160.608 
          20     0.058163 -0.000382714 -4.91758e-07     -160.608 
          20     0.069219 -0.000401679 -6.72277e-07     -160.608 
          20     0.081236 -0.000437604 -9.09329e-07     -160.608 
          20     0.094215 -0.000448998  -1.2146e-06     -160.608 
          20     0.108155 -0.000469103 -1.60387e-06     -160.608 
          20     0.123056 -0.000483873 -2.08873e-06     -160.608 
          20     0.138918 -0.000497287 -2.68282e-06     -160.608 
          20     0.155744 -0.000509929 -3.39953e-06     -160.608 
          20     0.173529 -0.000520358 -4.25044e-06     -160.608 
          20     0.192276 -0.000527375 -5.24483e-06     -160.608 
          20     0.211984 -0.000531878 -6.38865e-06     -160.608 
          20     0.232655   -0.0005359 -7.68582e-06     -160.608 
          20     0.254285  -0.00053631 -9.14021e-06     -160.608 
          20     0.276877 -0.000535744 -1.07499e-05     -160.608 
          20     0.300431  -0.00053333 -1.25116e-05     -160.608 
          20     0.324946 -0.000529215 -1.44159e-05     -160.608 
          20     0.350424 -0.000523584  -1.6455e-05     -160.608 
          20     0.376861 -0.000516662 -1.86209e-05     -160.608 
          20      0.40426  -0.00050869 -2.09073e-05     -160.607 
          20     0.432621 -0.000499919 -2.33166e-05     -160.607 
          20     0.461945 -0.000490666 -2.58522e-05     -160.607 
          20     0.492228 -0.000481269 -2.85212e-05     -160.607 
          20     0.523472 -0.000472074 -3.13342e-05     -160.607 
          20     0.555678 -0.000463411 -3.43041e-05     -160.607 
          20     0.588845 -0.000455572 -3.74438e-05     -160.607 
          20     0.622976 -0.000448782 -4.07644e-05     -160.607 
          20     0.658066 -0.000443152 -4.42701e-05     -160.607 
          20     0.694117  -0.00043863 -4.79556e-05     -160.607 
          20      0.73113 -0.000434935 -5.17993e-05     -160.607 
          20     0.769107 -0.000431653 -5.57716e-05     -160.607 
          20     0.808042 -0.000428574  -5.9844e-05     -160.607 
          20     0.847939 -0.000425287 -6.39748e-05     -160.607 
          20     0.888797   -0.0004215  -6.8129e-05     -160.607 
          20      0.93062 -0.000416994 -7.22731e-05     -160.607 
          20       0.9734 -0.000411625 -7.63759e-05     -160.606 
          20      1.01714 -0.000405327 -8.04099e-05     -160.606 
          20      1.06185 -0.000398094 -8.43536e-05     -160.606 
          20      1.10751 -0.000389969 -8.81896e-05     -160.606 
          20      1.15414 -0.000381042 -9.19003e-05     -160.606 
          20      1.20173 -0.000371422 -9.54704e-05     -160.606 
          20      1.25028 -0.000361204 -9.88893e-05     -160.606 
          20      1.29979 -0.000350493 -0.000102142     -160.605 
          20      1.35026 -0.000339409 -0.000105222     -160.605 
          20       1.4017 -0.000328044 -0.000108115     -160.605 
          20      1.45409 -0.000316484 -0.000110811     -160.605 
          20      1.50745  -0.00030481 -0.000113299     -160.605 
          20      1.56176 -0.000293101 -0.000115569     -160.605 
          20      1.61705 -0.000281426 -0.000117615     -160.604 
          20      1.67329 -0.000269839 -0.000119432     -160.604 
          20      1.73049 -0.000258409 -0.000121011     -160.604 
          20      1.78865 -0.000247173  -0.00012235     -160.604 
          20      1.84778 -0.000236188 -0.000123443     -160.603 
          20      1.90786 -0.000225513 -0.000124291     -160.603 
          20      1.96891 -0.000215209 -0.000124899     -160.603 
          20      2.03092 -0.000205331  -0.00012527     -160.602 
          20      2.09389 -0.000195924 -0.000125407     -160.602 
          20      2.15782 -0.000187058 -0.000125321     -160.602 
          20      2.22272 -0.000178796 -0.000125024     -160.601 
          20      2.28857 -0.000171202 -0.000124531     -160.601 
          20      2.35539  -0.00016434  -0.00012386     -160.601 
          20      2.42317 -0.000158267 -0.000123032       -160.6 
          20      2.49191 -0.000153038 -0.000122069       -160.6 
          20      2.56161 -0.000148692 -0.000120996       -160.6 
          20      2.63226 -0.000145245 -0.000119837     -160.599 
          20      2.70389 -0.000142683 -0.000118619     -160.599 
          20      2.77648  -0.00014102 -0.000117385     -160.598 
          20      2.85002 -0.000140218 -0.000116171     -160.598 
          20      2.92453  -0.00014013 -0.000114986     -160.597 
          20            3 -0.000140705 -0.000113846     -160.597 
          40            0           -0           -0      -157.31 
          40      0.00048 -2.86288e-05 -1.44154e-10      -157.31 
          40     0.001922 -0.000101377 -1.63324e-10      -157.31 
          40     0.004326 -0.000185685  1.10155e-09      -157.31 
          40      0.00769 -0.000247655  5.31473e-09      -157.31 
          40     0.012017 -0.000271148  1.43063e-08      -157.31 
          40     0.017304 -0.000266261  2.96528e-08      -157.31 
          40     0.023553 -0.000260971  5.22945e-08      -157.31 
          40     0.030763 -0.000278558  8.21494e-08      -157.31 
          40     0.038936 -0.000316049  1.17814e-07      -157.31 
          40     0.048069 -0.000345613  1.56249e-07      -157.31 
          40     0.058163 -0.000351321  1.92573e-07      -157.31 
          40     0.069219 -0.000370031  2.19903e-07      -157.31 
          40     0.081236 -0.000405091  2.29593e-07      -157.31 
          40     0.094215 -0.000417765  2.11537e-07      -157.31 
          40     0.108155  -0.00043903  1.54466e-07      -157.31 
          40     0.123056 -0.000455748   4.6025e-08      -157.31 
          40     0.138918 -0.000471591 -1.25965e-07      -157.31 
          40     0.155744 -0.000487052 -3.73065e-07      -157.31 
          40     0.173529 -0.000500748 -7.05814e-07      -157.31 
          40     0.192276 -0.000511555  -1.1338e-06      -157.31 
          40     0.211984 -0.000520345  -1.6651e-06      -157.31 
          40     0.232655 -0.000529051 -2.30538e-06      -157.31 
          40     0.254285 -0.000534771 -3.05525e-06      -157.31 
          40     0.276877 -0.000540271 -3.92171e-06      -157.31 
          40     0.300431 -0.000544533  -4.9032e-06      -157.31 
          40     0.324946 -0.000547978 -5.99298e-06      -157.31 
          40     0.350424 -0.000550951 -7.18642e-06      -157.31 
          40     0.376861 -0.000553717 -8.47942e-06      -157.31 
          40      0.40426 -0.000556459 -9.86741e-06      -157.31 
          40     0.432621 -0.000559292 -1.13431e-05      -157.31 
          40     0.461945 -0.000562279 -1.28953e-05      -157.31 
          40     0.492228 -0.000565441 -1.45079e-05      -157.31 
          40     0.523472  -0.00056877 -1.61623e-05      -157.31 
          40     0.555678 -0.000572199 -1.78422e-05      -157.31 
          40     0.588845 -0.000575537 -1.95444e-05      -157.31 
          40     0.622976 -0.000578451 -2.12772e-05      -157.31 
          40     0.658066 -0.000580873 -2.29426e-05      -157.31 
          40     0.694117 -0.000582422 -2.45318e-05      -157.31 
          40      0.73113 -0.000582771 -2.60534e-05      -157.31 
          40     0.769107  -0.00058166 -2.75087e-05      -157.31 
          40     0.808042 -0.000578902 -2.88919e-05      -157.31 
          40     0.847939 -0.000574381  -3.0193e-05      -157.31 
          40     0.888797 -0.000568053 -3.13995e-05      -157.31 
          40      0.93062 -0.000559938 -3.24988e-05      -157.31 
          40       0.9734 -0.000550115 -3.34812e-05      -157.31 
          40      1.01714 -0.000538707 -3.43428e-05      -157.31 
          40      1.06185 -0.000525872 -3.50872e-05      -157.31 
          40      1.10751 -0.000511782 -3.57271e-05      -157.31 
          40      1.15414 -0.000496614 -3.62836e-05      -157.31 
          40      1.20173 -0.000480542 -3.67839e-05      -157.31 
          40      1.25028 -0.000463717 -3.72555e-05     -157.309 
          40      1.29979 -0.000446274 -3.77164e-05     -157.309 
          40      1.35026 -0.000428339 -3.81596e-05     -157.309 
          40       1.4017 -0.000410059 -3.85311e-05     -157.309 
          40      1.45409 -0.000391632 -3.86987e-05     -157.309 
          40      1.50745 -0.000373377 -3.84304e-05     -157.309 
          40      1.56176 -0.000354768 -3.87288e-05     -157.309 
          40      1.61705 -0.000335992 -3.88892e-05     -157.309 
          40      1.67329 -0.000317216 -3.89239e-05     -157.309 
          40      1.73049 -0.000298599 -3.88447e-05     -157.309 
          40      1.78865 -0.000280291 -3.86625e-05     -157.309 
          40      1.84778 -0.000262436 -3.83877e-05     -157.309 
          40      1.90786 -0.000245169 -3.80299e-05     -157.309 
          40      1.96891  -0.00022861 -3.75979e-05     -157.309 
          40      2.03092 -0.000212866 -3.70997e-05     -157.309 
          40      2.09389 -0.000198034 -3.65429e-05     -157.309 
          40      2.15782 -0.000184198 -3.59344e-05     -157.309 
          40      2.22272 -0.000171421 -3.52805e-05     -157.309 
          40      2.28857 -0.000159757 -3.45873e-05     -157.309 
          40      2.35539 -0.000149243 -3.38608e-05     -157.309 
          40      2.42317 -0.000139899 -3.31066e-05     -157.309 
          40      2.49191 -0.000131733  -3.2331e-05     -157.309 
          40      2.56161 -0.000124738 -3.15402e-05     -157.309 
          40      2.63226  -0.00011889 -3.07409e-05     -157.309 
          40      2.70389 -0.000114154 -2.99407e-05     -157.309 
          40      2.77648 -0.000110485 -2.91477e-05     -157.309 
          40      2.85002 -0.000107824 -2.83711e-05     -157.309 
          40      2.92453 -0.000106102 -2.76208e-05     -157.309 
          40            3 -0.000105243 -2.69075e-05     -157.309 
          60            0           -0           -0     -154.086 
          60      0.00048 -2.70082e-05 -9.73259e-11     -154.086 
          60     0.001922 -9.49956e-05 -9.77023e-10     -154.086 
          60     0.004326  -0.00017167 -4.39197e-09     -154.086 
          60      0.00769 -0.000223432 -1.32178e-08     -154.086 
          60     0.012017  -0.00023431 -3.13997e-08     -154.086 
          60     0.017304 -0.000214413 -6.38013e-08     -154.086 
          60     0.023553 -0.000191618 -1.16075e-07     -154.086 
          60     0.030763 -0.000189195 -1.94397e-07     -154.086 
          60     0.038936 -0.000204422 -3.05249e-07     -154.086 
          60     0.048069 -0.000209977 -4.55031e-07     -154.086 
          60     0.058163 -0.000190401 -6.49882e-07     -154.086 
          60     0.069219 -0.000182653 -8.95353e-07     -154.086 
          60     0.081236 -0.000190492 -1.19599e-06     -154.086 
          60     0.094215 -0.000175937 -1.55516e-06     -154.086 
          60     0.108155 -0.000170186 -1.97484e-06     -154.086 
          60     0.123056 -0.000160647 -2.45539e-06     -154.086 
          60     0.138918  -0.00015137 -2.99558e-06     -154.086 
          60     0.155744 -0.000143192 -3.59273e-06     -154.086 
          60     0.173529  -0.00013503 -4.24244e-06     -154.086 
          60     0.192276 -0.000125962 -4.93938e-06     -154.086 
          60     0.211984 -0.000116971 -5.67718e-06     -154.086 
          60     0.232655 -0.000109999 -6.44903e-06     -154.086 
          60     0.254285 -0.000102119 -7.24772e-06     -154.086 
          60     0.276877 -9.59525e-05 -8.06648e-06     -154.086 
          60     0.300431 -9.03145e-05 -8.89895e-06     -154.086 
          60     0.324946 -8.54069e-05  -9.7397e-06     -154.086 
          60     0.350424 -8.13439e-05 -1.05843e-05     -154.086 
          60     0.376861 -7.81623e-05 -1.14295e-05     -154.086 
          60      0.40426 -7.58373e-05 -1.22733e-05     -154.086 
          60     0.432621 -7.43124e-05 -1.31151e-05     -154.086 
          60     0.461945 -7.35291e-05 -1.39551e-05     -154.086 
          60     0.492228 -7.34542e-05 -1.47947e-05     -154.086 
          60     0.523472 -7.40912e-05 -1.56356e-05     -154.086 
          60     0.555678  -7.5459e-05 -1.64799e-05     -154.086 
          60     0.588845  -7.7516e-05 -1.73293e-05     -154.086 
          60     0.622976 -8.01233e-05 -1.81845e-05     -154.086 
          60     0.658066 -8.33929e-05  -1.9047e-05     -154.086 
          60     0.694117 -8.72324e-05 -1.99165e-05     -154.086 
          60      0.73113 -9.15584e-05 -2.07893e-05     -154.086 
          60     0.769107 -9.62697e-05 -2.16604e-05     -154.086 
          60     0.808042 -0.000101251 -2.25235e-05     -154.086 
          60     0.847939 -0.000106381 -2.33712e-05     -154.086 
          60     0.888797 -0.000111534 -2.41955e-05     -154.086 
          60      0.93062 -0.000116592 -2.49879e-05     -154.086 
          60       0.9734 -0.000121449 -2.57399e-05     -154.086 
          60      1.01714 -0.000126021 -2.64434e-05     -154.086 
          60      1.06185 -0.000130251 -2.70915e-05     -154.086 
          60      1.10751 -0.000134117 -2.76784e-05     -154.086 
          60      1.15414 -0.000137635 -2.82002e-05     -154.086 
          60      1.20173 -0.000140862 -2.86549e-05     -154.086 
          60      1.25028 -0.000143887 -2.90427e-05     -154.086 
          60      1.29979 -0.000146827 -2.93658e-05     -154.086 