Variables = x, y, u, v, p

Zone, I=2080, F=POINT
         -50            0            0            0      8.55237 
         -50      0.00048  3.03301e-05  7.23562e-10      8.55237 
         -50     0.001922   0.00010763  3.34637e-09      8.55237 
         -50     0.004326   0.00019762  9.04746e-09      8.55237 
         -50      0.00769   0.00026356  1.92996e-08      8.55237 
         -50     0.012017  0.000285812  3.54098e-08      8.55237 
         -50     0.017304  0.000271452  5.82005e-08      8.55237 
         -50     0.023553  0.000247564    8.813e-08      8.55237 
         -50     0.030763  0.000239949  1.25684e-07      8.55237 
         -50     0.038936  0.000251073  1.71898e-07      8.55237 
         -50     0.048069  0.000258057   2.2844e-07      8.55237 
         -50     0.058163  0.000244055  2.97107e-07      8.55237 
         -50     0.069219  0.000238534  3.79007e-07      8.55237 
         -50     0.081236  0.000252948  4.75703e-07      8.55237 
         -50     0.094215  0.000245412  5.89064e-07      8.55237 
         -50     0.108155  0.000246302  7.20534e-07      8.55237 
         -50     0.123056  0.000245394  8.67925e-07      8.55237 
         -50     0.138918  0.000244513  1.03066e-06      8.55237 
         -50     0.155744  0.000244046  1.20889e-06      8.55237 
         -50     0.173529  0.000243495   1.4007e-06      8.55237 
         -50     0.192276  0.000242394  1.59988e-06      8.55237 
         -50     0.211984  0.000241096  1.79642e-06      8.55237 
         -50     0.232655  0.000240412  1.98483e-06      8.55237 
         -50     0.254285  0.000239094   2.1807e-06      8.55237 
         -50     0.276877   0.00023814  2.33299e-06      8.55237 
         -50     0.300431   0.00023711  2.47776e-06      8.55237 
         -50     0.324946   0.00023607  2.67477e-06      8.55236 
         -50     0.350424  0.000235071  2.96095e-06      8.55236 
         -50     0.376861  0.000234151  3.35015e-06      8.55236 
         -50      0.40426  0.000233335  3.83548e-06      8.55236 
         -50     0.432621  0.000232645  4.39282e-06      8.55236 
         -50     0.461945  0.000232096  4.98487e-06      8.55236 
         -50     0.492228  0.000231706  5.56316e-06      8.55236 
         -50     0.523472  0.000231491  6.06542e-06      8.55236 
         -50     0.555678  0.000231464  6.40314e-06      8.55235 
         -50     0.588845  0.000231611  6.43387e-06      8.55235 
         -50     0.622976  0.000231857   6.2828e-06      8.55235 
         -50     0.658066  0.000232184  6.58921e-06      8.55235 
         -50     0.694117    0.0002326  7.02903e-06      8.55234 
         -50      0.73113  0.000233088   7.5428e-06      8.55234 
         -50     0.769107  0.000233628  8.08488e-06      8.55234 
         -50     0.808042  0.000234201  8.62336e-06      8.55233 
         -50     0.847939   0.00023479  9.13946e-06      8.55233 
         -50     0.888797  0.000235378  9.62577e-06      8.55233 
         -50      0.93062   0.00023595  1.00839e-05      8.55232 
         -50       0.9734  0.000236494  1.05214e-05      8.55232 
         -50      1.01714  0.000236997  1.09486e-05      8.55231 
         -50      1.06185  0.000237452  1.13744e-05      8.55231 
         -50      1.10751  0.000237851  1.18035e-05       8.5523 
         -50      1.15414  0.000238189  1.22337e-05      8.55229 
         -50      1.20173  0.000238462  1.26543e-05      8.55229 
         -50      1.25028  0.000238665  1.30474e-05      8.55228 
         -50      1.29979  0.000238794  1.33925e-05      8.55227 
         -50      1.35026  0.000238843  1.36744e-05      8.55226 
         -50       1.4017  0.000238803  1.38985e-05      8.55226 
         -50      1.45409  0.000238659  1.41124e-05      8.55225 
         -50      1.50745  0.000238391  1.44372e-05      8.55224 
         -50      1.56176  0.000238296  1.47846e-05      8.55223 
         -50      1.61705  0.000238453  1.50398e-05      8.55222 
         -50      1.67329  0.000238874   1.5237e-05      8.55221 
         -50      1.73049  0.000239562  1.54048e-05      8.55219 
         -50      1.78865  0.000240507   1.5566e-05      8.55218 
         -50      1.84778  0.000241688   1.5737e-05      8.55217 
         -50      1.90786  0.000243073  1.59278e-05      8.55216 
         -50      1.96891  0.000244621  1.61423e-05      8.55214 
         -50      2.03092  0.000246283  1.63786e-05      8.55213 
         -50      2.09389  0.000248003  1.66288e-05      8.55211 
         -50      2.15782  0.000249722  1.68802e-05      8.55209 
         -50      2.22272  0.000251377  1.71155e-05      8.55208 
         -50      2.28857  0.000252906  1.73141e-05      8.55206 
         -50      2.35539  0.000254252  1.74525e-05      8.55204 
         -50      2.42317   0.00025536  1.75063e-05      8.55202 
         -50      2.49191  0.000256185  1.74506e-05        8.552 
         -50      2.56161  0.000256694  1.72623e-05      8.55198 
         -50      2.63226  0.000256864  1.69209e-05      8.55196 
         -50      2.70389  0.000256691  1.64106e-05      8.55193 
         -50      2.77648  0.000256186  1.57219e-05      8.55191 
         -50      2.85002  0.000255379  1.48531e-05      8.55188 
         -50      2.92453  0.000254321  1.38124e-05      8.55186 
         -50            3  0.000253078  1.26189e-05      8.55183 
         -25            0  2.58418e-19  1.16251e-24      8.29989 
         -25      0.00048  2.57635e-05  1.20965e-10      8.29989 
         -25     0.001922  9.14113e-05  4.82263e-10      8.29989 
         -25     0.004326  0.000167794  1.03512e-09      8.29989 
         -25      0.00769  0.000223678  1.57889e-09      8.29989 
         -25     0.012017  0.000242387  1.65316e-09      8.29989 
         -25     0.017304  0.000229981  4.91454e-10      8.29989 
         -25     0.023553  0.000209546 -2.91608e-09      8.29989 
         -25     0.030763  0.000203077 -9.66606e-09      8.29989 
         -25     0.038936  0.000212717 -2.07793e-08      8.29989 
         -25     0.048069  0.000219034 -3.71388e-08      8.29989 
         -25     0.058163  0.000207724 -5.96335e-08      8.29989 
         -25     0.069219  0.000203875  -8.9294e-08      8.29989 
         -25     0.081236  0.000217245 -1.26679e-07      8.29989 
         -25     0.094215  0.000212197 -1.72413e-07      8.29989 
         -25     0.108155  0.000214565 -2.27369e-07      8.29989 
         -25     0.123056   0.00021563 -2.91543e-07      8.29989 
         -25     0.138918  0.000216915 -3.65117e-07      8.29989 
         -25     0.155744  0.000218714 -4.48232e-07      8.29989 
         -25     0.173529  0.000220561 -5.40753e-07      8.29989 
         -25     0.192276  0.000222017 -6.42178e-07      8.29989 
         -25     0.211984  0.000223339 -7.51584e-07      8.29989 
         -25     0.232655   0.00022517 -8.68147e-07      8.29989 
         -25     0.254285  0.000226413  -9.9215e-07      8.29989 
         -25     0.276877  0.000227872 -1.12124e-06      8.29989 
         -25     0.300431  0.000229141 -1.25367e-06      8.29989 
         -25     0.324946  0.000230262 -1.38991e-06      8.29989 
         -25     0.350424   0.00023126 -1.53247e-06      8.29989 
         -25     0.376861  0.000232145 -1.68511e-06      8.29989 
         -25      0.40426  0.000232911 -1.85165e-06      8.29989 
         -25     0.432621  0.000233546 -2.03453e-06      8.29989 
         -25     0.461945  0.000234036  -2.2334e-06      8.29989 
         -25     0.492228  0.000234373 -2.44397e-06      8.29989 
         -25     0.523472  0.000234553 -2.65786e-06      8.29989 
         -25     0.555678  0.000234579 -2.86396e-06      8.29989 
         -25     0.588845  0.000234433 -3.05224e-06      8.29989 
         -25     0.622976  0.000234085 -3.20503e-06      8.29989 
         -25     0.658066  0.000233563 -3.34726e-06      8.29988 
         -25     0.694117  0.000232853 -3.51451e-06      8.29988 
         -25      0.73113   0.00023196 -3.70575e-06      8.29988 
         -25     0.769107    0.0002309 -3.91884e-06      8.29988 
         -25     0.808042  0.000229692 -4.15049e-06      8.29988 
         -25     0.847939  0.000228364  -4.3965e-06      8.29988 
         -25     0.888797  0.000226945 -4.65196e-06      8.29988 
         -25      0.93062  0.000225467 -4.91148e-06      8.29988 
         -25       0.9734  0.000223964 -5.16948e-06      8.29988 
         -25      1.01714  0.000222469 -5.42066e-06      8.29988 
         -25      1.06185  0.000221009 -5.66023e-06      8.29987 
         -25      1.10751  0.000219608  -5.8844e-06      8.29987 
         -25      1.15414  0.000218284 -6.09065e-06      8.29987 
         -25      1.20173  0.000217044 -6.27799e-06      8.29987 
         -25      1.25028  0.000215889 -6.44714e-06      8.29987 
         -25      1.29979  0.000214812  -6.6005e-06      8.29987 
         -25      1.35026  0.000213801 -6.74183e-06      8.29986 
         -25       1.4017  0.000212846 -6.87558e-06      8.29986 
         -25      1.45409  0.000211945 -7.00592e-06      8.29986 
         -25      1.50745  0.000211135 -7.13118e-06      8.29986 
         -25      1.56176     0.000211 -7.12844e-06      8.29985 
         -25      1.61705  0.000210342 -7.22285e-06      8.29985 
         -25      1.67329  0.000209398 -7.36142e-06      8.29985 
         -25      1.73049  0.000208371 -7.50038e-06      8.29985 
         -25      1.78865  0.000207428 -7.60543e-06      8.29984 
         -25      1.84778  0.000206698 -7.65187e-06      8.29984 
         -25      1.90786  0.000206274 -7.62453e-06      8.29984 
         -25      1.96891  0.000206212 -7.51746e-06      8.29983 
         -25      2.03092  0.000206531 -7.33337e-06      8.29983 
         -25      2.09389  0.000207223 -7.08283e-06      8.29982 
         -25      2.15782  0.000208246 -6.78341e-06      8.29982 
         -25      2.22272  0.000209537 -6.45831e-06      8.29982 
         -25      2.28857  0.000211012 -6.13508e-06      8.29981 
         -25      2.35539  0.000212576   -5.844e-06      8.29981 
         -25      2.42317  0.000214123 -5.61639e-06       8.2998 
         -25      2.49191  0.000215548 -5.48288e-06       8.2998 
         -25      2.56161  0.000216753  -5.4714e-06      8.29979 
         -25      2.63226  0.000217651 -5.60551e-06      8.29979 
         -25      2.70389  0.000218175 -5.90258e-06      8.29978 
         -25      2.77648  0.000218282 -6.37214e-06      8.29977 
         -25      2.85002  0.000217961 -7.01473e-06      8.29977 
         -25      2.92453  0.000217232 -7.82092e-06      8.29976 
         -25            3   0.00021615 -8.77097e-06      8.29975 
           0            0            0            0      8.05743 
           0      0.00048  0.000135095 -8.27989e-05      8.05749 
           0     0.001922  0.000468943 -0.000285599      8.05763 
           0     0.004326  0.000825531  -0.00049664      8.05783 
           0      0.00769   0.00102445 -0.000603143      8.05803 
           0     0.012017  0.000986034 -0.000559169      8.05818 
           0     0.017304  0.000777818 -0.000414536      8.05827 
           0     0.023553   0.00056595  -0.00028087      8.05832 
           0     0.030763   0.00048793 -0.000246238      8.05837 
           0     0.038936   0.00053073 -0.000294404      8.05848 
           0     0.048069  0.000537946 -0.000311358      8.05863 
           0     0.058163  0.000416191 -0.000226972      8.05879 
           0     0.069219  0.000370362 -0.000181449      8.05887 
           0     0.081236  0.000441621 -0.000240539      8.05896 
           0     0.094215   0.00037641 -0.000193007       8.0591 
           0     0.108155  0.000372228 -0.000185082      8.05923 
           0     0.123056  0.000356671 -0.000174665      8.05935 
           0     0.138918  0.000344167 -0.000165565      8.05947 
           0     0.155744  0.000337918 -0.000158477       8.0596 
           0     0.173529  0.000333916 -0.000152178      8.05973 
           0     0.192276  0.000327845 -0.000145507      8.05986 
           0     0.211984   0.00032125 -0.000139054         8.06 
           0     0.232655  0.000319598  -0.00013439      8.06013 
           0     0.254285  0.000315513 -0.000129175      8.06026 
           0     0.276877  0.000313614 -0.000124762       8.0604 
           0     0.300431  0.000311643 -0.000120636      8.06053 
           0     0.324946  0.000309952 -0.000116774      8.06067 
           0     0.350424  0.000308489 -0.000113198      8.06081 
           0     0.376861  0.000307192 -0.000109892      8.06094 
           0      0.40426  0.000305992  -0.00010682      8.06108 
           0     0.432621  0.000304833 -0.000103963      8.06122 
           0     0.461945   0.00030365  -0.00010131      8.06136 
           0     0.492228  0.000302403 -9.88268e-05       8.0615 
           0     0.523472  0.000301056 -9.65314e-05      8.06164 
           0     0.555678  0.000299561 -9.43839e-05      8.06178 
           0     0.588845   0.00029789 -9.23802e-05      8.06191 
           0     0.622976  0.000296025 -9.05069e-05      8.06205 
           0     0.658066  0.000293949 -8.87689e-05      8.06219 
           0     0.694117  0.000291655 -8.71498e-05      8.06233 
           0      0.73113  0.000289147 -8.56365e-05      8.06247 
           0     0.769107  0.000286439 -8.42207e-05      8.06261 
           0     0.808042  0.000283555 -8.28987e-05      8.06275 
           0     0.847939  0.000280526 -8.16679e-05      8.06289 
           0     0.888797  0.000277384 -8.05198e-05      8.06303 
           0      0.93062  0.000274173 -7.94401e-05      8.06316 
           0       0.9734  0.000270932 -7.84231e-05       8.0633 
           0      1.01714    0.0002677 -7.74603e-05      8.06344 
           0      1.06185  0.000264512 -7.65517e-05      8.06357 
           0      1.10751  0.000261384 -7.56904e-05      8.06371 
           0      1.15414  0.000258314 -7.48738e-05      8.06385 
           0      1.20173  0.000255311 -7.40616e-05      8.06398 
           0      1.25028  0.000252369 -7.32872e-05      8.06411 
           0      1.29979  0.000249474 -7.25683e-05      8.06425 
           0      1.35026  0.000246619 -7.18631e-05      8.06438 
           0       1.4017  0.000243776 -7.11485e-05      8.06451 
           0      1.45409  0.000240922 -7.04316e-05      8.06465 
           0      1.50745  0.000238038 -6.97271e-05      8.06478 
           0      1.56176  0.000235101 -6.90442e-05      8.06491 
           0      1.61705  0.000232091 -6.83787e-05      8.06504 
           0      1.67329   0.00022899 -6.77114e-05      8.06517 
           0      1.73049  0.000225794 -6.70173e-05      8.06529 
           0      1.78865  0.000222525 -6.62885e-05      8.06542 
           0      1.84778  0.000219252 -6.55756e-05      8.06555 
           0      1.90786  0.000216069 -6.48622e-05      8.06567 
           0      1.96891   0.00021309 -6.40663e-05       8.0658 
           0      2.03092  0.000210392 -6.32291e-05      8.06592 
           0      2.09389  0.000208091 -6.23264e-05      8.06604 
           0      2.15782  0.000206223 -6.13798e-05      8.06617 
           0      2.22272  0.000204804 -6.03841e-05      8.06629 
           0      2.28857  0.000203823 -5.93603e-05      8.06641 
           0      2.35539  0.000203237  -5.8323e-05      8.06652 
           0      2.42317  0.000202974 -5.72724e-05      8.06664 
           0      2.49191  0.000202941 -5.62192e-05      8.06676 
           0      2.56161   0.00020304 -5.52518e-05      8.06688 
           0      2.63226  0.000203187 -5.43538e-05      8.06699 
           0      2.70389  0.000203273 -5.35515e-05       8.0671 
           0      2.77648  0.000203267 -5.28636e-05      8.06722 
           0      2.85002  0.000203124  -5.2254e-05      8.06733 
           0      2.92453    0.0002028 -5.17337e-05      8.06744 
           0            3   0.00020227 -5.13139e-05      8.06755 
          20            0   2.4933e-19  5.59296e-24      7.90696 
          20      0.00048  2.48342e-05  6.86069e-10      7.90696 
          20     0.001922  8.78425e-05  3.98306e-09      7.90696 
          20     0.004326  0.000160249  1.33511e-08      7.90696 
          20      0.00769   0.00021121  3.38099e-08      7.90696 
          20     0.012017  0.000224224  7.12029e-08      7.90696 
          20     0.017304   0.00020522  1.31543e-07      7.90696 
          20     0.023553  0.000176923  2.20935e-07      7.90696 
          20     0.030763  0.000161016  3.45718e-07      7.90696 
          20     0.038936   0.00015963  5.12817e-07      7.90696 
          20     0.048069  0.000153676   7.2935e-07      7.90696 
          20     0.058163  0.000129157  1.00175e-06      7.90696 
          20     0.069219  0.000110962  1.33455e-06      7.90696 
          20     0.081236  0.000108923   1.7322e-06      7.90696 
          20     0.094215  8.81314e-05  2.19763e-06      7.90696 
          20     0.108155  7.43427e-05  2.73125e-06      7.90696 
          20     0.123056  5.92496e-05  3.33238e-06      7.90696 
          20     0.138918  4.46559e-05  3.99925e-06      7.90696 
          20     0.155744   3.1151e-05  4.72981e-06      7.90696 
          20     0.173529   1.8566e-05  5.52077e-06      7.90696 
          20     0.192276  6.71793e-06  6.36795e-06      7.90696 
          20     0.211984 -3.93419e-06  7.26592e-06      7.90696 
          20     0.232655 -1.25887e-05  8.20999e-06      7.90696 
          20     0.254285 -2.02086e-05  9.19973e-06      7.90696 
          20     0.276877 -2.60337e-05  1.02263e-05      7.90696 
          20     0.300431 -3.04196e-05  1.12838e-05      7.90696 
          20     0.324946 -3.34874e-05   1.2365e-05      7.90695 
          20     0.350424 -3.54375e-05  1.34588e-05      7.90695 
          20     0.376861 -3.65301e-05  1.45513e-05      7.90695 
          20      0.40426 -3.70728e-05  1.56277e-05      7.90695 
          20     0.432621 -3.74111e-05  1.66697e-05      7.90695 
          20     0.461945 -3.78495e-05  1.76588e-05      7.90695 
          20     0.492228 -3.86349e-05  1.85774e-05      7.90695 
          20     0.523472 -3.99194e-05  1.94112e-05      7.90694 
          20     0.555678  -4.1728e-05  2.01509e-05      7.90694 
          20     0.588845 -4.39372e-05  2.07943e-05      7.90694 
          20     0.622976 -4.62729e-05  2.13475e-05      7.90694 
          20     0.658066   -4.834e-05  2.18247e-05      7.90693 
          20     0.694117 -4.96989e-05  2.22463e-05      7.90693 
          20      0.73113 -5.00059e-05   2.2634e-05      7.90693 
          20     0.769107 -4.90581e-05  2.30076e-05      7.90692 
          20     0.808042 -4.65543e-05  2.33874e-05      7.90692 
          20     0.847939 -4.24842e-05  2.37846e-05      7.90691 
          20     0.888797 -3.68856e-05  2.42076e-05      7.90691 
          20      0.93062 -2.98732e-05  2.46608e-05      7.90691 
          20       0.9734 -2.16131e-05   2.5147e-05       7.9069 
          20      1.01714 -1.23173e-05  2.56593e-05      7.90689 
          20      1.06185 -2.20711e-06  2.61913e-05      7.90689 
          20      1.10751  8.52874e-06  2.67366e-05      7.90688 
          20      1.15414  1.97283e-05  2.72817e-05      7.90688 
          20      1.20173  3.12741e-05  2.78225e-05      7.90687 
          20      1.25028  4.30709e-05  2.83711e-05      7.90686 
          20      1.29979  5.50137e-05  2.88853e-05      7.90685 
          20      1.35026  6.70751e-05  2.93927e-05      7.90684 
          20       1.4017  7.92068e-05  2.98814e-05      7.90684 
          20      1.45409  9.13611e-05  3.03426e-05      7.90683 
          20      1.50745  0.000103488  3.07713e-05      7.90682 
          20      1.56176  0.000115539  3.11666e-05      7.90681 
          20      1.61705  0.000127474    3.153e-05       7.9068 
          20      1.67329  0.000139261  3.18631e-05      7.90679 
          20      1.73049  0.000150826  3.21612e-05      7.90677 
          20      1.78865  0.000162142  3.24186e-05      7.90676 
          20      1.84778   0.00017317  3.26387e-05      7.90675 
          20      1.90786  0.000183878  3.28252e-05      7.90674 
          20      1.96891  0.000194234    3.298e-05      7.90672 
          20      2.03092  0.000204205  3.31045e-05      7.90671 
          20      2.09389  0.000213756  3.31991e-05      7.90669 
          20      2.15782  0.000222846  3.32591e-05      7.90668 
          20      2.22272  0.000231429  3.32802e-05      7.90666 
          20      2.28857  0.000239412  3.32529e-05      7.90664 
          20      2.35539  0.000246678  3.31621e-05      7.90663 
          20      2.42317  0.000253096   3.2988e-05      7.90661 
          20      2.49191  0.000258543  3.27082e-05      7.90659 
          20      2.56161  0.000262926  3.23018e-05      7.90657 
          20      2.63226  0.000266194  3.17554e-05      7.90655 
          20      2.70389  0.000268366  3.10728e-05      7.90653 
          20      2.77648  0.000269424  3.02595e-05      7.90651 
          20      2.85002  0.000269389  2.93035e-05      7.90649 
          20      2.92453  0.000268627  2.82584e-05      7.90646 
          20            3  0.000267317   2.7176e-05      7.90644 
          40            0           -0           -0      7.73046 
          40      0.00048  2.17448e-05  4.77268e-11      7.73046 
          40     0.001922  7.62908e-05  4.07915e-10      7.73046 
          40     0.004326  0.000136917  1.63705e-09      7.73046 
          40      0.00769   0.00017507  4.35741e-09      7.73046 
          40     0.012017  0.000175656  8.84768e-09      7.73046 
          40     0.017304  0.000144618  1.45264e-08      7.73046 
          40     0.023553  0.000103632  1.94212e-08      7.73046 
          40     0.030763  7.34604e-05  1.96435e-08      7.73046 
          40     0.038936  5.66469e-05  8.94498e-09      7.73046 
          40     0.048069  3.59467e-05 -2.16098e-08      7.73046 
          40     0.058163 -1.14516e-06 -8.38447e-08      7.73046 
          40     0.069219 -3.08596e-05 -1.92499e-07      7.73046 
          40     0.081236 -4.35386e-05 -3.64957e-07      7.73046 
          40     0.094215 -7.13675e-05 -6.20681e-07      7.73046 
          40     0.108155 -9.00046e-05 -9.80497e-07      7.73046 
          40     0.123056 -0.000107014 -1.46648e-06      7.73046 
          40     0.138918 -0.000120649  -2.1001e-06      7.73046 
          40     0.155744 -0.000130423 -2.90163e-06      7.73046 
          40     0.173529 -0.000136684 -3.88899e-06      7.73046 
          40     0.192276 -0.000139897 -5.07822e-06      7.73046 
          40     0.211984 -0.000140016  -6.4822e-06      7.73046 
          40     0.232655 -0.000136745 -8.10982e-06      7.73046 
          40     0.254285 -0.000131489 -9.96255e-06      7.73046 
          40     0.276877 -0.000123963 -1.20481e-05      7.73046 
          40     0.300431 -0.000115044 -1.43629e-05      7.73046 
          40     0.324946 -0.000105201 -1.68965e-05      7.73046 
          40     0.350424 -9.49095e-05 -1.96399e-05      7.73046 
          40     0.376861 -8.46257e-05 -2.25839e-05      7.73046 
          40      0.40426 -7.47605e-05 -2.57186e-05      7.73046 
          40     0.432621 -6.56591e-05 -2.90307e-05      7.73046 
          40     0.461945 -5.75803e-05 -3.25025e-05      7.73046 
          40     0.492228 -5.06843e-05 -3.61108e-05      7.73046 
          40     0.523472 -4.50241e-05 -3.98305e-05      7.73046 
          40     0.555678 -4.05531e-05 -4.36394e-05      7.73046 
          40     0.588845 -3.71454e-05 -4.75305e-05      7.73046 
          40     0.622976 -3.45863e-05 -5.15107e-05      7.73045 
          40     0.658066 -3.26536e-05 -5.54654e-05      7.73045 
          40     0.694117 -3.10047e-05 -5.93826e-05      7.73045 
          40      0.73113 -2.92258e-05 -6.32697e-05      7.73045 
          40     0.769107 -2.69579e-05 -6.71233e-05      7.73045 
          40     0.808042 -2.39051e-05 -7.09305e-05      7.73045 
          40     0.847939 -1.98394e-05 -7.46727e-05      7.73045 
          40     0.888797 -1.46039e-05 -7.83267e-05      7.73045 
          40      0.93062 -8.11168e-06  -8.1869e-05      7.73045 
          40       0.9734 -3.45471e-07 -8.52778e-05      7.73045 
          40      1.01714  8.65302e-06 -8.85387e-05      7.73045 
          40      1.06185  1.87879e-05 -9.16454e-05      7.73045 
          40      1.10751  2.99225e-05 -9.46026e-05      7.73045 
          40      1.15414  4.18914e-05 -9.74259e-05      7.73045 
          40      1.20173  5.45102e-05 -0.000100138      7.73045 
          40      1.25028  6.75921e-05 -0.000102763      7.73045 
          40      1.29979  8.09542e-05 -0.000105316      7.73045 
          40      1.35026  9.44232e-05 -0.000107783      7.73045 
          40       1.4017  0.000107827 -0.000110094      7.73045 
          40      1.45409  0.000120986  -0.00011209      7.73045 
          40      1.50745  0.000133698 -0.000113493      7.73045 
          40      1.56176  0.000146632 -0.000115497      7.73045 
          40      1.61705  0.000159083 -0.000117226      7.73045 
          40      1.67329  0.000171077 -0.000118688      7.73045 
          40      1.73049  0.000182625 -0.000119894      7.73046 
          40      1.78865  0.000193725 -0.000120854      7.73046 
          40      1.84778   0.00020436 -0.000121577      7.73046 
          40      1.90786  0.000214496 -0.000122075      7.73046 
          40      1.96891  0.000224094  -0.00012236      7.73046 
          40      2.03092  0.000233101 -0.000122442      7.73046 
          40      2.09389  0.000241461 -0.000122335      7.73046 
          40      2.15782  0.000249112 -0.000122048      7.73046 
          40      2.22272  0.000255992 -0.000121595      7.73046 
          40      2.28857  0.000262045 -0.000120986      7.73046 
          40      2.35539  0.000267219 -0.000120232      7.73046 
          40      2.42317  0.000271476 -0.000119344      7.73046 
          40      2.49191  0.000274789 -0.000118332      7.73046 
          40      2.56161  0.000277152 -0.000117205      7.73046 
          40      2.63226  0.000278579 -0.000115974      7.73046 
          40      2.70389  0.000279108 -0.000114646      7.73046 
          40      2.77648  0.000278802  -0.00011323      7.73046 
          40      2.85002  0.000277751 -0.000111733      7.73046 
          40      2.92453  0.000276067 -0.000110163      7.73046 
          40            3  0.000273887 -0.000108527      7.73046 
          60            0           -0           -0      7.55838 
          60      0.00048  2.15887e-05  1.19705e-11      7.55838 
          60     0.001922  7.57542e-05  6.32615e-11      7.55838 
          60     0.004326  0.000135994  1.38281e-10      7.55838 
          60      0.00769  0.000173985  1.23307e-11      7.55838 
          60     0.012017  0.000174746 -1.02405e-09      7.55838 
          60     0.017304  0.000144148 -4.50601e-09      7.55838 
          60     0.023553  0.000103656 -1.31675e-08      7.55838 
          60     0.030763  7.38176e-05 -3.12934e-08      7.55838 
          60     0.038936  5.70995e-05 -6.50303e-08      7.55838 
          60     0.048069  3.63333e-05 -1.22563e-07      7.55838 
          60     0.058163  -9.5887e-07  -2.1423e-07      7.55838 
          60     0.069219 -3.12886e-05 -3.52483e-07      7.55838 
          60     0.081236 -4.51594e-05 -5.51704e-07      7.55838 
          60     0.094215 -7.45656e-05 -8.27725e-07      7.55838 
          60     0.108155  -9.5432e-05 -1.19725e-06      7.55838 
          60     0.123056 -0.000115305  -1.6779e-06      7.55838 
          60     0.138918 -0.000132473 -2.28674e-06      7.55838 
          60     0.155744 -0.000146454 -3.03983e-06      7.55838 
          60     0.173529 -0.000157558 -3.95141e-06      7.55838 
          60     0.192276 -0.000166188 -5.03431e-06      7.55838 
          60     0.211984 -0.000172212 -6.29896e-06      7.55838 
          60     0.232655 -0.000175235 -7.75275e-06      7.55838 
          60     0.254285 -0.000176527 -9.39716e-06      7.55838 
          60     0.276877 -0.000175682 -1.12389e-05      7.55838 
          60     0.300431 -0.000173438 -1.32758e-05      7.55838 
          60     0.324946 -0.000170135 -1.55001e-05      7.55838 
          60     0.350424 -0.000166133 -1.79053e-05      7.55838 
          60     0.376861 -0.000161789 -2.04848e-05      7.55838 
          60      0.40426 -0.000157434 -2.32317e-05      7.55838 
          60     0.432621 -0.000153361 -2.61364e-05      7.55838 
          60     0.461945 -0.000149803 -2.91858e-05      7.55838 
          60     0.492228 -0.000146918 -3.23622e-05      7.55838 
          60     0.523472 -0.000144785 -3.56465e-05      7.55838 
          60     0.555678 -0.000143399 -3.90214e-05      7.55838 
          60     0.588845  -0.00014269 -4.24817e-05      7.55838 
          60     0.622976 -0.000142455 -4.60316e-05      7.55838 
          60     0.658066 -0.000142605 -4.95768e-05      7.55838 
          60     0.694117  -0.00014287 -5.31044e-05      7.55838 
          60      0.73113 -0.000142768 -5.66134e-05      7.55838 
          60     0.769107 -0.000141869 -6.00925e-05      7.55838 
          60     0.808042  -0.00013981 -6.35209e-05      7.55838 
          60     0.847939 -0.000136304 -6.68719e-05      7.55838 
          60     0.888797 -0.000131143  -7.0115e-05      7.55838 
          60      0.93062 -0.000124209   -7.322e-05      7.55838 
          60       0.9734  -0.00011547 -7.61595e-05      7.55838 
          60      1.01714 -0.000104979 -7.89141e-05      7.55838 
          60      1.06185 -9.28697e-05 -8.14745e-05      7.55838 
          60      1.10751 -7.93421e-05 -8.38437e-05      7.55838 
          60      1.15414 -6.46517e-05 -8.60378e-05      7.55838 
          60      1.20173 -4.90933e-05 -8.80827e-05      7.55838 
          60      1.25028 -3.29733e-05 -9.00091e-05      7.55838 
          60      1.29979 -1.65893e-05 -9.18409e-05      7.55838 