Variables = x, y, u, v, p

Zone, I=416, F=POINT
         -50            0            0            0      92.2053 
         -50     0.013333 -6.59854e-05 -1.87906e-09      92.2053 
         -50     0.053333 -6.95892e-05 -1.65711e-07      92.2053 
         -50         0.12 -7.34781e-05 -8.24056e-07      92.2053 
         -50     0.213332 -6.45982e-05 -2.42221e-06      92.2052 
         -50     0.333332 -4.68689e-05 -4.68085e-06      92.2052 
         -50         0.48 -3.10341e-05 -7.44362e-06      92.2051 
         -50     0.653331  -2.2791e-05 -1.21016e-05       92.205 
         -50     0.853332 -2.07779e-05 -1.56754e-05      92.2048 
         -50         1.08 -2.08509e-05 -1.90262e-05      92.2046 
         -50      1.33333 -2.43476e-05  -2.1241e-05      92.2042 
         -50      1.61333  -3.0373e-05 -2.31872e-05      92.2037 
         -50         1.92 -3.76871e-05 -2.21063e-05      92.2031 
         -50      2.25333 -3.12369e-05  -2.1209e-05      92.2023 
         -50      2.61333 -2.69067e-05 -2.48272e-05      92.2013 
         -50            3 -3.85766e-05 -3.10101e-05         92.2 
         -25            0 -5.52373e-20  3.14107e-24      89.7576 
         -25     0.013333 -5.47664e-05 -1.66291e-09      89.7576 
         -25     0.053333 -5.62013e-05 -7.48789e-08      89.7576 
         -25         0.12 -6.34917e-05 -3.56988e-07      89.7576 
         -25     0.213332 -6.80497e-05 -1.03572e-06      89.7576 
         -25     0.333332 -6.94312e-05 -2.26579e-06      89.7576 
         -25         0.48 -7.15171e-05 -4.01338e-06      89.7576 
         -25     0.653331 -7.62635e-05 -6.20245e-06      89.7576 
         -25     0.853332 -8.14017e-05 -8.86624e-06      89.7575 
         -25         1.08   -8.165e-05 -1.15456e-05      89.7575 
         -25      1.33333 -7.60893e-05 -1.38051e-05      89.7574 
         -25      1.61333 -6.86615e-05 -1.54318e-05      89.7572 
         -25         1.92 -6.02268e-05 -1.69866e-05      89.7571 
         -25      2.25333 -5.00523e-05   -1.692e-05      89.7569 
         -25      2.61333 -3.77095e-05 -1.52211e-05      89.7566 
         -25            3 -2.69515e-05   -1.339e-05      89.7563 
           0            0            0            0      87.4106 
           0     0.013333 -0.000278755  0.000131447      87.4129 
           0     0.053333  -0.00011136  6.69531e-05      87.4181 
           0         0.12 -5.41278e-05  3.76772e-05      87.4241 
           0     0.213332 -1.91395e-05  2.91963e-05      87.4306 
           0     0.333332  5.43576e-06  2.30114e-05      87.4373 
           0         0.48  2.05057e-05  1.77356e-05      87.4442 
           0     0.653331  2.76676e-05  1.31574e-05      87.4511 
           0     0.853332   2.5994e-05   8.9508e-06       87.458 
           0         1.08  1.55853e-05  5.08513e-06      87.4648 
           0      1.33333 -1.80044e-07  1.67103e-06      87.4715 
           0      1.61333 -1.66928e-05 -1.00261e-06      87.4781 
           0         1.92 -3.11643e-05 -2.80599e-06      87.4844 
           0      2.25333 -4.05997e-05 -3.54441e-06      87.4905 
           0      2.61333 -3.70712e-05 -1.34053e-06      87.4963 
           0            3 -2.24827e-05    4.052e-06      87.5019 
          20            0 -5.66879e-20  1.46755e-23      85.9395 
          20     0.013333 -6.00416e-05 -1.25847e-08      85.9395 
          20     0.053333 -7.38035e-05 -3.96756e-07      85.9395 
          20         0.12 -9.17973e-05 -1.64147e-06      85.9395 
          20     0.213332 -0.000108784 -3.88245e-06      85.9395 
          20     0.333332 -0.000130121 -6.99997e-06      85.9394 
          20         0.48 -0.000154903 -1.09535e-05      85.9393 
          20     0.653331 -0.000167438 -1.48406e-05      85.9392 
          20     0.853332 -0.000163934 -1.81926e-05       85.939 
          20         1.08 -0.000151074 -2.11368e-05      85.9387 
          20      1.33333 -0.000130206 -2.31158e-05      85.9383 
          20      1.61333 -0.000106271 -2.38744e-05      85.9377 
          20         1.92  -8.2059e-05 -2.33844e-05       85.937 
          20      2.25333 -5.66972e-05 -2.16866e-05      85.9362 
          20      2.61333 -3.65203e-05 -1.95908e-05      85.9351 
          20            3 -2.62909e-05 -1.71081e-05      85.9339 
          40            0           -0           -0      84.2176 
          40     0.013333  3.87709e-07  7.54454e-08      84.2176 
          40     0.053333  0.000100899  1.25745e-06      84.2176 
          40         0.12  0.000143029  6.41482e-06      84.2176 
          40     0.213332  8.24432e-05  1.88825e-05      84.2176 
          40     0.333332 -2.87511e-05  3.96881e-05      84.2176 
          40         0.48 -0.000108336  6.70868e-05      84.2176 
          40     0.653331 -0.000124259  9.83989e-05      84.2176 
          40     0.853332 -0.000104955  0.000130678      84.2176 
          40         1.08 -8.78869e-05  0.000161231      84.2175 
          40      1.33333 -8.35782e-05  0.000187068      84.2175 
          40      1.61333 -8.35911e-05  0.000205239      84.2175 
          40         1.92 -8.12363e-05  0.000213591      84.2175 
          40      2.25333 -7.90022e-05  0.000211194      84.2174 
          40      2.61333 -7.74594e-05   0.00019991      84.2174 
          40            3 -7.35241e-05  0.000183383      84.2173 
          60            0           -0           -0      82.5334 
          60     0.013333  1.83138e-06  1.03921e-07      82.5334 
          60     0.053333  0.000104533   1.6179e-06      82.5334 
          60         0.12  0.000156627  7.56065e-06      82.5334 
          60     0.213332  0.000126056  2.05864e-05      82.5334 
          60     0.333332  6.04844e-05  4.09025e-05      82.5334 
          60         0.48  2.40972e-05  6.72059e-05      82.5334 
          60     0.653331    5.228e-05  9.85816e-05      82.5334 
          60     0.853332  0.000125547  0.000132793      82.5334 
          60         1.08  0.000159205  0.000164108      82.5334 
          60      1.33333  0.000125336  0.000187828      82.5334 
          60      1.61333  7.67241e-05  0.000203418      82.5334 
          60         1.92  2.84892e-05   0.00021005      82.5334 
          60      2.25333 -1.97895e-05  0.000206206      82.5334 
          60      2.61333  -6.2047e-05  0.000193998      82.5334 
          60            3 -8.74306e-05  0.000177344      82.5334 
          80            0           -0           -0      80.8552 
          80     0.013333 -4.03447e-05  4.14208e-08      80.8552 
          80     0.053333 -2.83268e-05  6.01676e-07      80.8552 
          80         0.12 -3.92755e-05  2.56484e-06      80.8552 
          80     0.213332 -6.54463e-05  6.36052e-06      80.8552 
          80     0.333332 -8.79085e-05  1.16165e-05      80.8552 
          80         0.48 -9.67942e-05  1.78024e-05      80.8552 
          80     0.653331 -8.92133e-05  2.49641e-05      80.8552 
          80     0.853332 -6.26061e-05  3.34148e-05      80.8552 
          80         1.08 -3.61309e-05  4.19267e-05      80.8552 
          80      1.33333 -3.24985e-05  4.82335e-05      80.8552 
          80      1.61333 -3.17839e-05  5.19623e-05      80.8552 
          80         1.92 -2.63675e-05  5.32555e-05      80.8552 
          80      2.25333 -2.06107e-05  5.20995e-05      80.8552 
          80      2.61333 -1.92656e-05  4.83597e-05      80.8552 
          80            3 -2.47533e-05  4.23773e-05      80.8552 
         100            0 -4.07032e-20 -6.02133e-26      79.1779 
         100     0.013333 -2.52062e-05  9.69821e-09      79.1779 
         100     0.053333  2.83616e-05  2.02137e-07      79.1779 
         100         0.12  6.66182e-05  1.26642e-06      79.1779 
         100     0.213332  6.46931e-05  4.41215e-06      79.1779 
         100     0.333332  2.81989e-05  1.05255e-05      79.1779 
         100         0.48 -1.45591e-05  1.93627e-05      79.1779 
         100     0.653331 -4.32844e-05  2.98695e-05      79.1779 
         100     0.853332 -5.64757e-05  4.10092e-05      79.1779 
         100         1.08 -5.97791e-05  5.21307e-05      79.1779 
         100      1.33333  -6.1138e-05  6.23144e-05      79.1779 
         100      1.61333 -6.12133e-05  7.05567e-05      79.1779 
         100         1.92 -5.66291e-05  7.61086e-05      79.1779 
         100      2.25333  -5.0836e-05  7.81878e-05      79.1779 
         100      2.61333 -4.80781e-05  7.68784e-05      79.1779 
         100            3 -4.67273e-05  7.36857e-05      79.1779 
         150            0           -0           -0       74.976 
         150     0.013333 -6.38431e-05   1.4118e-07       74.976 
         150     0.053333 -0.000135698  2.00741e-06       74.976 
         150         0.12 -0.000290744  8.29173e-06       74.976 
         150     0.213332 -0.000473312  1.97519e-05       74.976 
         150     0.333332 -0.000603597  3.43419e-05       74.976 
         150         0.48 -0.000653902  4.97957e-05       74.976 
         150     0.653331 -0.000637104  6.60029e-05       74.976 
         150     0.853332 -0.000559814  8.43751e-05       74.976 
         150         1.08 -0.000441764  0.000104423       74.976 
         150      1.33333 -0.000328145  0.000123213       74.976 
         150      1.61333 -0.000227546  0.000138009       74.976 
         150         1.92 -0.000125224  0.000147622       74.976 
         150      2.25333 -3.01311e-05  0.000151283       74.976 
         150      2.61333  4.61886e-05  0.000148674      74.9761 
         150            3  9.69535e-05  0.000141038      74.9761 
         200            0            0            0      70.7566 
         200     0.013333 -0.000119763 -7.06173e-09      70.7566 
         200     0.053333 -0.000297427 -2.58341e-07      70.7566 
         200         0.12 -0.000486559 -2.12992e-06      70.7566 
         200     0.213332 -0.000583189 -8.47094e-06      70.7566 
         200     0.333332 -0.000569684 -2.18002e-05      70.7566 
         200         0.48 -0.000507911  -4.2382e-05      70.7566 
         200     0.653331 -0.000459721 -6.84702e-05      70.7566 
         200     0.853332 -0.000433097 -9.71564e-05      70.7566 
         200         1.08 -0.000391452 -0.000125056      70.7566 
         200      1.33333 -0.000316528 -0.000149405      70.7566 
         200      1.61333  -0.00023024 -0.000169255      70.7567 
         200         1.92 -0.000143894 -0.000183512      70.7567 
         200      2.25333 -6.00394e-05 -0.000190408      70.7567 
         200      2.61333  1.30174e-05 -0.000189753      70.7567 
         200            3   6.3791e-05 -0.000182306      70.7567 
         250            0           -0           -0      66.5183 
         250     0.013333 -0.000115574  1.73985e-08      66.5183 
         250     0.053333 -0.000290904  1.12617e-07      66.5183 
         250         0.12 -0.000494059 -4.48116e-07      66.5183 
         250     0.213332 -0.000622884  -3.9926e-06      66.5183 
         250     0.333332 -0.000645602 -1.30377e-05      66.5183 
         250         0.48 -0.000610086 -2.81729e-05      66.5183 
         250     0.653331 -0.000573044 -4.78358e-05      66.5183 
         250     0.853332 -0.000542406 -6.91981e-05      66.5183 
         250         1.08 -0.000486775 -8.92808e-05      66.5183 
         250      1.33333 -0.000396024 -0.000106236      66.5183 
         250      1.61333 -0.000294585 -0.000119942      66.5183 
         250         1.92 -0.000192281 -0.000129979      66.5183 
         250      2.25333 -9.16933e-05 -0.000135131      66.5183 
         250      2.61333 -1.99258e-06 -0.000135127      66.5184 
         250            3  6.41676e-05 -0.000130254      66.5184 
         300            0            0            0      62.2556 
         300     0.013333 -9.71224e-05  7.60081e-08      62.2556 
         300     0.053333 -0.000246194  1.04169e-06      62.2556 
         300         0.12 -0.000468593  4.03165e-06      62.2556 
         300     0.213332 -0.000680854  8.65635e-06      62.2556 
         300     0.333332  -0.00080848   1.2736e-05      62.2556 
         300         0.48 -0.000841981  1.41356e-05      62.2556 
         300     0.653331  -0.00081987  1.24182e-05      62.2556 
         300     0.853332 -0.000770931  8.85653e-06      62.2556 
         300         1.08 -0.000691712  5.25734e-06      62.2556 
         300      1.33333 -0.000578353  2.73213e-06      62.2556 
         300      1.61333 -0.000448911  8.67187e-07      62.2556 
         300         1.92 -0.000313253 -8.72651e-07      62.2556 
         300      2.25333 -0.000175036  -2.4193e-06      62.2556 
         300      2.61333 -4.57441e-05 -3.72132e-06      62.2556 
         300            3  5.93535e-05  -4.6262e-06      62.2556 
         350            0           -0           -0      57.9743 
         350     0.013333  2.71713e-06  9.74814e-08      57.9743 
         350     0.053333  0.000102014  1.50015e-06      57.9743 
         350         0.12   0.00015061  6.97128e-06      57.9743 
         350     0.213332  0.000107215    1.913e-05      57.9743 
         350     0.333332  9.87174e-06  3.85657e-05      57.9743 
         350         0.48 -7.54149e-05  6.40192e-05      57.9743 
         350     0.653331 -0.000108449  9.42076e-05      57.9743 
         350     0.853332 -8.11586e-05  0.000128433      57.9743 
         350         1.08 -2.10104e-05  0.000164959      57.9743 
         350      1.33333   1.7515e-05  0.000200111      57.9743 
         350      1.61333  1.89787e-05  0.000230653      57.9743 
         350         1.92  1.24929e-05    0.0002551      57.9743 
         350      2.25333  5.79982e-06  0.000271571      57.9743 
         350      2.61333 -2.20918e-06  0.000278684      57.9743 
         350            3 -1.21726e-05  0.000276001      57.9743 
         400            0           -0           -0      53.6775 
         400     0.013333 -9.61876e-05  1.24637e-07      53.6775 
         400     0.053333 -0.000260163  1.77826e-06      53.6775 
         400         0.12 -0.000536743  7.35483e-06      53.6775 
         400     0.213332 -0.000834541  1.73337e-05      53.6775 
         400     0.333332  -0.00103564  2.90254e-05      53.6775 
         400         0.48  -0.00109603  3.89301e-05      53.6775 
         400     0.653331  -0.00105479  4.58573e-05      53.6775 
         400     0.853332 -0.000958428  5.11808e-05      53.6775 
         400         1.08 -0.000827685  5.63272e-05      53.6775 
         400      1.33333 -0.000687442  6.07174e-05      53.6775 
         400      1.61333  -0.00055368  6.30148e-05      53.6775 
         400         1.92 -0.000411384  6.31053e-05      53.6775 
         400      2.25333 -0.000258294   6.1214e-05      53.6776 
         400      2.61333 -0.000106045  5.73514e-05      53.6776 
         400            3  2.75142e-05  5.16689e-05      53.6776 
         450            0            0            0      49.3662 
         450     0.013333  7.41485e-05   7.2005e-08      49.3662 
         450     0.053333  0.000357947  1.25309e-06      49.3662 
         450         0.12  0.000622729  6.73963e-06      49.3662 
         450     0.213332  0.000726319  2.11883e-05      49.3662 
         450     0.333332  0.000664581  4.77209e-05      49.3662 
         450         0.48  0.000546524  8.58266e-05      49.3662 
         450     0.653331  0.000476002  0.000132651      49.3662 
         450     0.853332  0.000479465  0.000184903      49.3662 
         450         1.08  0.000503994  0.000238419      49.3662 
         450      1.33333  0.000471217  0.000288095      49.3662 
         450      1.61333  0.000375049  0.000330686      49.3662 
         450         1.92  0.000267882  0.000365352      49.3662 
         450      2.25333  0.000158735  0.000390109      49.3662 
         450      2.61333  4.92539e-05  0.000402804      49.3662 
         450            3 -5.09505e-05  0.000402203      49.3662 
         500            0           -0           -0      45.0429 
         500     0.013333 -2.44173e-05  -1.2709e-07      45.0429 
         500     0.053333  6.46815e-05 -1.84851e-06      45.0429 
         500         0.12  0.000248148 -7.95559e-06      45.0429 
         500     0.213332  0.000495972 -2.00149e-05      45.0429 
         500     0.333332   0.00071683 -3.68591e-05      45.0429 
         500         0.48  0.000845509 -5.58982e-05      45.0429 
         500     0.653331  0.000882931 -7.55899e-05      45.0429 
         500     0.853332  0.000851389 -9.64034e-05      45.0429 
         500         1.08  0.000756509 -0.000119649      45.0429 
         500      1.33333  0.000617172 -0.000144935      45.0429 
         500      1.61333  0.000479353  -0.00016935      45.0429 
         500         1.92  0.000353357 -0.000190304      45.0429 
         500      2.25333  0.000222666 -0.000206382      45.0429 
         500      2.61333  8.74496e-05 -0.000216499      45.0429 
         500            3 -3.85754e-05 -0.000219859      45.0429 
         550            0            0            0      40.7123 
         550     0.013333 -2.34808e-05  6.57543e-08      40.7123 
         550     0.053333  1.16096e-05   1.0034e-06      40.7123 
         550         0.12 -5.11465e-06  4.65036e-06      40.7123 
         550     0.213332  -9.6371e-05  1.28553e-05      40.7123 
         550     0.333332 -0.000232079  2.62753e-05      40.7123 
         550         0.48 -0.000357589   4.4105e-05      40.7123 
         550     0.653331  -0.00043682  6.49715e-05      40.7123 
         550     0.853332 -0.000463166  8.79244e-05      40.7123 
         550         1.08 -0.000443594  0.000112551      40.7123 
         550      1.33333 -0.000391615  0.000138279      40.7123 
         550      1.61333 -0.000327796  0.000163733      40.7123 
         550         1.92 -0.000266375  0.000187002      40.7123 
         550      2.25333 -0.000203012  0.000206436      40.7123 
         550      2.61333 -0.000136367  0.000220548      40.7123 
         550            3 -7.14974e-05  0.000228189      40.7124 
         600            0           -0           -0      36.3757 
         600     0.013333 -9.63455e-05 -1.21912e-08      36.3757 
         600     0.053333 -0.000227763 -2.33173e-07      36.3757 
         600         0.12 -0.000385451 -1.39749e-06      36.3757 
         600     0.213332 -0.000498708 -4.85075e-06      36.3757 
         600     0.333332 -0.000537589  -1.1949e-05      36.3757 
         600         0.48 -0.000521278 -2.33025e-05      36.3757 
         600     0.653331 -0.000489073 -3.86803e-05      36.3757 
         600     0.853332 -0.000469351 -5.73893e-05      36.3757 
         600         1.08 -0.000463379 -7.82916e-05      36.3757 
         600      1.33333 -0.000446993 -9.96333e-05      36.3757 
         600      1.61333  -0.00040038 -0.000119604      36.3757 
         600         1.92 -0.000333552 -0.000137243      36.3758 
         600      2.25333 -0.000258079 -0.000151905      36.3758 
         600      2.61333 -0.000178204 -0.000162606      36.3758 
         600            3 -9.77333e-05 -0.000168455      36.3758 
         650            0            0            0      32.0292 
         650     0.013333 -6.45223e-05 -3.34179e-08      32.0292 
         650     0.053333   -0.0001051 -5.29946e-07      32.0292 
         650         0.12 -0.000128917 -2.60054e-06      32.0292 
         650     0.213332 -9.73631e-05 -7.64566e-06      32.0292 
         650     0.333332 -1.63523e-05 -1.65378e-05      32.0292 
         650         0.48   7.4862e-05 -2.90625e-05      32.0292 
         650     0.653331  0.000140948 -4.42271e-05      32.0292 
         650     0.853332  0.000170567 -6.10065e-05      32.0292 
         650         1.08  0.000170796 -7.86723e-05      32.0292 
         650      1.33333  0.000154293 -9.66367e-05      32.0292 
         650      1.61333  0.000130903 -0.000114249      32.0292 
         650         1.92  0.000105706 -0.000130681      32.0292 
         650      2.25333  7.83286e-05 -0.000144868      32.0292 
         650      2.61333  4.82517e-05  -0.00015584      32.0292 
         650            3  1.67421e-05 -0.000162749      32.0292 
         700            0           -0           -0      27.6718 
         700     0.013333  2.28715e-05 -9.84814e-09      27.6718 
         700     0.053333  0.000199505 -6.98324e-08      27.6718 
         700         0.12  0.000409289  2.01153e-07      27.6718 
         700     0.213332  0.000571692  2.20005e-06      27.6718 
         700     0.333332  0.000638502   7.8308e-06      27.6718 
         700         0.48  0.000625041  1.81879e-05      27.6718 
         700     0.653331  0.000583021  3.29287e-05      27.6718 
         700     0.853332  0.000549437  5.07202e-05      27.6718 
         700         1.08  0.000522887  6.97611e-05      27.6718 
         700      1.33333   0.00047854  8.82316e-05      27.6718 
         700      1.61333  0.000406293  0.000104992      27.6718 
         700         1.92  0.000322154  0.000119782      27.6718 
         700      2.25333  0.000233277  0.000132411      27.6718 
         700      2.61333   0.00014027  0.000141966      27.6718 
         700            3  4.59488e-05  0.000147617      27.6718 
         750            0            0            0      23.3028 
         750     0.013333 -6.80378e-05  3.16314e-08      23.3028 
         750     0.053333 -0.000139888  4.36722e-07      23.3028 
         750         0.12 -0.000254041  1.71569e-06      23.3028 
         750     0.213332 -0.000370852  3.78858e-06      23.3028 
         750     0.333332 -0.000452451  5.85039e-06      23.3028 
         750         0.48 -0.000488514  7.04536e-06      23.3028 
         750     0.653331 -0.000494493  7.14327e-06      23.3028 
         750     0.853332 -0.000487713  6.62531e-06      23.3028 
         750         1.08 -0.000467955  6.45418e-06      23.3028 
         750      1.33333  -0.00042384  7.54888e-06      23.3028 
         750      1.61333 -0.000358496  9.99978e-06      23.3028 
         750         1.92 -0.000292104   1.2962e-05      23.3028 
         750      2.25333 -0.000226508   1.5821e-05      23.3028 
         750      2.61333 -0.000158499  1.83713e-05      23.3028 
         750            3 -8.90756e-05  2.05259e-05      23.3028 
         800            0           -0           -0      18.9236 
         800     0.013333 -4.01481e-05 -1.22707e-08      18.9236 
         800     0.053333 -2.77114e-05 -1.76232e-07      18.9236 
         800         0.12 -1.14705e-05 -7.51824e-07      18.9236 
         800     0.213332  1.03499e-05 -1.88244e-06      18.9236 
         800     0.333332   3.0685e-05 -3.47454e-06      18.9236 
         800         0.48  4.32892e-05 -5.32335e-06      18.9236 
         800     0.653331  4.84522e-05 -7.31693e-06      18.9236 
         800     0.853332  4.85276e-05 -9.51029e-06      18.9236 
         800         1.08  4.30699e-05 -1.21035e-05      18.9236 
         800      1.33333  3.00993e-05 -1.52504e-05      18.9236 
         800      1.61333  1.27685e-05 -1.88529e-05      18.9236 
         800         1.92 -1.06173e-06 -2.22913e-05      18.9236 
         800      2.25333 -1.16886e-05  -2.5472e-05      18.9236 
         800      2.61333 -2.12746e-05  -2.8026e-05      18.9237 
         800            3 -3.03041e-05 -2.97299e-05      18.9237 
         850            0           -0           -0      14.5354 
         850     0.013333  -4.1041e-05  1.45519e-09      14.5354 
         850     0.053333 -3.51912e-05  2.20567e-08      14.5354 
         850         0.12 -3.54221e-05  9.50396e-08      14.5354 
         850     0.213332 -3.71886e-05  2.39973e-07      14.5354 
         850     0.333332 -3.86165e-05  4.47673e-07      14.5354 
         850         0.48 -3.95562e-05  6.95725e-07      14.5354 
         850     0.653331 -3.99845e-05  9.71635e-07      14.5354 
         850     0.853332 -4.01256e-05  1.28768e-06      14.5354 
         850         1.08 -3.98055e-05  1.66078e-06      14.5354 
         850      1.33333  -3.8584e-05  2.12094e-06      14.5354 
         850      1.61333  -3.6781e-05  2.67363e-06      14.5354 
         850         1.92 -3.54874e-05  3.13722e-06      14.5354 
         850      2.25333 -3.47062e-05  3.62869e-06      14.5354 
         850      2.61333 -3.37843e-05  3.92092e-06      14.5354 
         850            3 -3.24786e-05  4.00051e-06      14.5354 
         900            0           -0           -0      10.1388 
         900     0.013333 -4.09158e-05 -2.76735e-10      10.1388 
         900     0.053333 -3.48142e-05 -3.07955e-09      10.1388 
         900         0.12 -3.37149e-05 -1.22172e-08      10.1388 
         900     0.213332 -3.32826e-05 -2.84142e-08      10.1388 
         900     0.333332 -3.26666e-05 -4.79781e-08      10.1388 
         900         0.48  -3.2443e-05 -6.63872e-08      10.1388 
         900     0.653331  -3.2493e-05 -8.52699e-08      10.1388 
         900     0.853332 -3.27017e-05 -9.63601e-08      10.1388 
         900         1.08 -3.30379e-05  -1.1764e-07      10.1388 
         900      1.33333 -3.35623e-05   -1.512e-07      10.1388 
         900      1.61333 -3.42501e-05   -1.465e-07      10.1388 
         900         1.92 -3.47336e-05  -2.9024e-07      10.1388 
         900      2.25333 -3.50143e-05  -2.7914e-07      10.1388 
         900      2.61333 -3.49074e-05 -2.73422e-07      10.1388 
         900            3 -3.43739e-05 -4.23218e-07      10.1388 
         950            0           -0           -0       5.7345 
         950     0.013333 -4.08382e-05  2.73818e-11       5.7345 
         950     0.053333 -3.50711e-05  1.04549e-09       5.7345 
         950         0.12 -3.45198e-05  4.29326e-09       5.7345 
         950     0.213332 -3.46995e-05  1.01488e-08       5.7345 
         950     0.333332 -3.45481e-05  1.85224e-08       5.7345 
         950         0.48 -3.45457e-05  2.87785e-08       5.7345 
         950     0.653331 -3.46391e-05  4.11764e-08       5.7345 
         950     0.853332 -3.48272e-05  5.34713e-08       5.7345 
         950         1.08 -3.50668e-05  6.06315e-08       5.7345 
         950      1.33333 -3.53638e-05  9.81569e-08       5.7345 
         950      1.61333 -3.56292e-05  1.04798e-07       5.7345 
         950         1.92 -3.60041e-05  1.42985e-07      5.73451 
         950      2.25333 -3.62277e-05   2.3585e-07      5.73451 
         950      2.61333 -3.59875e-05  2.27431e-07      5.73451 
         950            3  -3.5336e-05  1.55553e-07      5.73451 
        1000            0           -0           -0      1.32388 
        1000     0.013333 -4.07205e-05  -2.5246e-11      1.32388 
        1000     0.053333 -3.49551e-05 -1.20908e-10      1.32388 
        1000         0.12 -3.43549e-05 -5.45482e-10      1.32388 
        1000     0.213332 -3.44542e-05  -1.3796e-09      1.32388 
        1000     0.333332 -3.42238e-05  -2.3798e-09      1.32388 
        1000         0.48 -3.41639e-05 -3.34178e-09      1.32388 
        1000     0.653331 -3.42213e-05 -4.44441e-09      1.32388 
        1000     0.853332  -3.4378e-05 -5.19817e-09      1.32388 
        1000         1.08 -3.46104e-05 -7.18739e-09      1.32388 
        1000      1.33333 -3.49167e-05 -4.25588e-09      1.32388 
        1000      1.61333 -3.52758e-05  4.61109e-09      1.32388 
        1000         1.92   -3.571e-05 -1.04683e-08      1.32388 
        1000      2.25333 -3.61233e-05  1.71421e-09      1.32388 
        1000      2.61333 -3.64126e-05  3.27607e-08      1.32388 
        1000            3 -3.63716e-05  7.65449e-08      1.32388 
