Variables = x, y, u, v, p

Zone, I=2080, F=POINT
         -50            0            0            0     -86.4403 
         -50      0.00048 -4.43115e-05 -2.73935e-09     -86.4403 
         -50     0.001922 -0.000155909 -1.04893e-08     -86.4403 
         -50     0.004326 -0.000281946  -2.2052e-08     -86.4403 
         -50      0.00769  -0.00036745 -3.61018e-08     -86.4403 
         -50     0.012017 -0.000386324   -5.184e-08     -86.4403 
         -50     0.017304 -0.000355191 -6.92203e-08     -86.4403 
         -50     0.023553 -0.000319802 -8.86792e-08     -86.4403 
         -50     0.030763  -0.00031844 -1.10327e-07     -86.4403 
         -50     0.038936 -0.000346944 -1.33253e-07     -86.4403 
         -50     0.048069 -0.000361043  -1.5565e-07     -86.4403 
         -50     0.058163 -0.000335991 -1.76398e-07     -86.4403 
         -50     0.069219 -0.000332695 -1.97153e-07     -86.4403 
         -50     0.081236 -0.000356669 -2.20937e-07     -86.4403 
         -50     0.094215  -0.00034459 -2.44767e-07     -86.4403 
         -50     0.108155 -0.000348296 -2.69978e-07     -86.4403 
         -50     0.123056 -0.000346728 -2.98504e-07     -86.4403 
         -50     0.138918 -0.000346135 -3.31242e-07     -86.4403 
         -50     0.155744 -0.000347585 -3.68429e-07     -86.4403 
         -50     0.173529 -0.000349038  -4.1036e-07     -86.4403 
         -50     0.192276 -0.000348719 -4.58301e-07     -86.4403 
         -50     0.211984  -0.00034792 -5.14863e-07     -86.4402 
         -50     0.232655 -0.000349532 -5.82819e-07     -86.4402 
         -50     0.254285  -0.00034871 -6.61113e-07     -86.4402 
         -50     0.276877 -0.000349421 -7.64461e-07     -86.4402 
         -50     0.300431 -0.000349713 -9.09181e-07     -86.4402 
         -50     0.324946 -0.000349853  -1.0878e-06     -86.4402 
         -50     0.350424     -0.00035 -1.27462e-06     -86.4402 
         -50     0.376861 -0.000350218 -1.43117e-06     -86.4402 
         -50      0.40426 -0.000350496 -1.51488e-06     -86.4402 
         -50     0.432621 -0.000350776 -1.49014e-06     -86.4402 
         -50     0.461945 -0.000350995 -1.34106e-06     -86.4402 
         -50     0.492228 -0.000351117 -1.08384e-06     -86.4401 
         -50     0.523472 -0.000351148 -7.75935e-07     -86.4401 
         -50     0.555678  -0.00035111  -5.1825e-07     -86.4401 
         -50     0.588845 -0.000350952 -4.44853e-07     -86.4401 
         -50     0.622976 -0.000350509 -6.40283e-07     -86.4401 
         -50     0.658066 -0.000350001  -8.1647e-07       -86.44 
         -50     0.694117 -0.000349408  -9.1392e-07       -86.44 
         -50      0.73113 -0.000348746 -9.39116e-07       -86.44 
         -50     0.769107 -0.000348031 -9.04413e-07     -86.4399 
         -50     0.808042 -0.000347281 -8.26812e-07     -86.4399 
         -50     0.847939 -0.000346512 -7.26271e-07     -86.4399 
         -50     0.888797 -0.000345742  -6.2372e-07     -86.4398 
         -50      0.93062 -0.000344989   -5.388e-07     -86.4398 
         -50       0.9734 -0.000344269 -4.87555e-07     -86.4397 
         -50      1.01714   -0.0003436 -4.80149e-07     -86.4397 
         -50      1.06185 -0.000343001 -5.19047e-07     -86.4396 
         -50      1.10751 -0.000342487 -5.97877e-07     -86.4396 
         -50      1.15414 -0.000342077 -7.01446e-07     -86.4395 
         -50      1.20173 -0.000341788 -8.07404e-07     -86.4395 
         -50      1.25028 -0.000341638 -8.90291e-07     -86.4394 
         -50      1.29979 -0.000341645 -9.28588e-07     -86.4393 
         -50      1.35026 -0.000341828 -9.15761e-07     -86.4392 
         -50       1.4017 -0.000342206 -8.76341e-07     -86.4392 
         -50      1.45409 -0.000342802 -8.88229e-07     -86.4391 
         -50      1.50745 -0.000343637 -1.10655e-06      -86.439 
         -50      1.56176 -0.000344648 -1.23577e-06     -86.4389 
         -50      1.61705 -0.000345672 -1.41445e-06     -86.4388 
         -50      1.67329 -0.000346675 -1.60855e-06     -86.4387 
         -50      1.73049  -0.00034763 -1.79498e-06     -86.4386 
         -50      1.78865 -0.000348519 -1.96123e-06     -86.4385 
         -50      1.84778 -0.000349333 -2.10462e-06     -86.4383 
         -50      1.90786 -0.000350065 -2.23133e-06     -86.4382 
         -50      1.96891  -0.00035072 -2.35515e-06     -86.4381 
         -50      2.03092 -0.000351304 -2.49587e-06     -86.4379 
         -50      2.09389 -0.000351827 -2.67749e-06     -86.4378 
         -50      2.15782 -0.000352302 -2.92607e-06     -86.4376 
         -50      2.22272 -0.000352742 -3.26768e-06     -86.4375 
         -50      2.28857 -0.000353158 -3.72589e-06     -86.4373 
         -50      2.35539 -0.000353558 -4.31949e-06     -86.4371 
         -50      2.42317 -0.000353947 -5.06019e-06     -86.4369 
         -50      2.49191 -0.000354323  -5.9502e-06     -86.4367 
         -50      2.56161 -0.000354676 -6.98071e-06     -86.4365 
         -50      2.63226  -0.00035499 -8.13018e-06     -86.4363 
         -50      2.70389 -0.000355238 -9.36375e-06     -86.4361 
         -50      2.77648 -0.000355389 -1.06327e-05     -86.4359 
         -50      2.85002 -0.000355403  -1.1876e-05     -86.4356 
         -50      2.92453 -0.000355238 -1.30227e-05     -86.4354 
         -50            3 -0.000354851 -1.39952e-05     -86.4351 
         -25            0  -3.7731e-19 -5.77423e-24     -84.0495 
         -25      0.00048  -3.7508e-05 -5.82382e-10     -84.0495 
         -25     0.001922 -0.000131883 -2.13889e-09     -84.0495 
         -25     0.004326 -0.000238176 -4.14909e-09     -84.0495 
         -25      0.00769 -0.000309641 -5.90996e-09     -84.0495 
         -25     0.012017 -0.000324107 -6.68756e-09     -84.0495 
         -25     0.017304 -0.000295758 -5.76688e-09     -84.0495 
         -25     0.023553 -0.000263565 -2.36145e-09     -84.0495 
         -25     0.030763 -0.000260151  4.59311e-09     -84.0495 
         -25     0.038936 -0.000282032  1.66179e-08     -84.0495 
         -25     0.048069 -0.000291599  3.56136e-08     -84.0495 
         -25     0.058163 -0.000267862  6.34303e-08     -84.0495 
         -25     0.069219 -0.000262702  1.01285e-07     -84.0495 
         -25     0.081236 -0.000280858  1.50136e-07     -84.0495 
         -25     0.094215 -0.000268499  2.12357e-07     -84.0495 
         -25     0.108155 -0.000269767  2.88773e-07     -84.0495 
         -25     0.123056 -0.000266762  3.80549e-07     -84.0495 
         -25     0.138918 -0.000264813  4.88476e-07     -84.0495 
         -25     0.155744 -0.000264826  6.12981e-07     -84.0495 
         -25     0.173529 -0.000265052  7.54156e-07     -84.0495 
         -25     0.192276 -0.000263958  9.12017e-07     -84.0495 
         -25     0.211984 -0.000262616  1.08649e-06     -84.0495 
         -25     0.232655 -0.000263452  1.27728e-06     -84.0495 
         -25     0.254285 -0.000262308  1.48265e-06     -84.0495 
         -25     0.276877 -0.000262528  1.70323e-06     -84.0495 
         -25     0.300431 -0.000262418  1.94227e-06     -84.0495 
         -25     0.324946 -0.000262178  2.19949e-06     -84.0495 
         -25     0.350424 -0.000261922  2.47499e-06     -84.0494 
         -25     0.376861 -0.000261683  2.76872e-06     -84.0494 
         -25      0.40426 -0.000261442   3.0802e-06     -84.0494 
         -25     0.432621 -0.000261149  3.40793e-06     -84.0494 
         -25     0.461945 -0.000260764  3.74905e-06     -84.0494 
         -25     0.492228 -0.000260281  4.09919e-06     -84.0494 
         -25     0.523472 -0.000259743  4.45305e-06     -84.0494 
         -25     0.555678 -0.000259213  4.80572e-06     -84.0494 
         -25     0.588845 -0.000258683  5.15537e-06     -84.0494 
         -25     0.622976 -0.000258071  5.53513e-06     -84.0494 
         -25     0.658066 -0.000257566  5.95372e-06     -84.0494 
         -25     0.694117 -0.000257134  6.36459e-06     -84.0494 
         -25      0.73113 -0.000256838  6.76453e-06     -84.0494 
         -25     0.769107 -0.000256731  7.15016e-06     -84.0494 
         -25     0.808042 -0.000256848  7.51805e-06     -84.0494 
         -25     0.847939 -0.000257211  7.86509e-06     -84.0494 
         -25     0.888797 -0.000257827  8.18871e-06     -84.0494 
         -25      0.93062 -0.000258686  8.48712e-06     -84.0493 
         -25       0.9734 -0.000259766   8.7595e-06     -84.0493 
         -25      1.01714 -0.000261031  9.00629e-06     -84.0493 
         -25      1.06185 -0.000262436  9.22908e-06     -84.0493 
         -25      1.10751  -0.00026393  9.43062e-06     -84.0493 
         -25      1.15414 -0.000265458  9.61432e-06     -84.0493 
         -25      1.20173 -0.000266967  9.78363e-06     -84.0493 
         -25      1.25028 -0.000268407  9.94093e-06     -84.0492 
         -25      1.29979 -0.000269739  1.00858e-05     -84.0492 
         -25      1.35026 -0.000270934  1.02129e-05     -84.0492 
         -25       1.4017 -0.000271979  1.03085e-05     -84.0492 
         -25      1.45409 -0.000272876  1.03465e-05     -84.0492 
         -25      1.50745 -0.000273645  1.02867e-05     -84.0491 
         -25      1.56176 -0.000274524  1.03409e-05     -84.0491 
         -25      1.61705 -0.000275434  1.03747e-05     -84.0491 
         -25      1.67329 -0.000276392  1.03834e-05     -84.0491 
         -25      1.73049 -0.000277409  1.03613e-05      -84.049 
         -25      1.78865 -0.000278495  1.03029e-05      -84.049 
         -25      1.84778 -0.000279658  1.02027e-05      -84.049 
         -25      1.90786   -0.0002809  1.00557e-05     -84.0489 
         -25      1.96891 -0.000282221  9.85801e-06     -84.0489 
         -25      2.03092 -0.000283616  9.60706e-06     -84.0489 
         -25      2.09389 -0.000285076  9.30213e-06     -84.0488 
         -25      2.15782 -0.000286588  8.94488e-06     -84.0488 
         -25      2.22272 -0.000288132  8.53959e-06     -84.0488 
         -25      2.28857 -0.000289686   8.0937e-06     -84.0487 
         -25      2.35539 -0.000291223  7.61802e-06     -84.0487 
         -25      2.42317  -0.00029271  7.12697e-06     -84.0486 
         -25      2.49191 -0.000294113  6.63878e-06     -84.0486 
         -25      2.56161 -0.000295394  6.17527e-06     -84.0485 
         -25      2.63226 -0.000296512  5.76164e-06     -84.0485 
         -25      2.70389  -0.00029743  5.42595e-06     -84.0484 
         -25      2.77648 -0.000298107  5.19837e-06     -84.0484 
         -25      2.85002 -0.000298509  5.10988e-06     -84.0483 
         -25      2.92453 -0.000298609   5.1907e-06     -84.0482 
         -25            3 -0.000298385  5.46828e-06     -84.0482 
           0            0            0            0     -81.7558 
           0      0.00048 -0.000171107  0.000111307      -81.756 
           0     0.001922 -0.000591264  0.000384115     -81.7566 
           0     0.004326  -0.00103236  0.000668626     -81.7575 
           0      0.00769  -0.00126477  0.000813584     -81.7585 
           0     0.012017  -0.00119546  0.000757089     -81.7595 
           0     0.017304 -0.000925025  0.000565147     -81.7604 
           0     0.023553 -0.000675809  0.000386174     -81.7612 
           0     0.030763 -0.000617366  0.000337162     -81.7621 
           0     0.038936 -0.000707729  0.000396925     -81.7631 
           0     0.048069 -0.000720322  0.000416692     -81.7642 
           0     0.058163 -0.000544034  0.000309523     -81.7654 
           0     0.069219 -0.000494937  0.000263612     -81.7664 
           0     0.081236 -0.000582073  0.000326432     -81.7674 
           0     0.094215 -0.000489307  0.000268686     -81.7686 
           0     0.108155 -0.000480131  0.000261008     -81.7698 
           0     0.123056 -0.000447336  0.000242856     -81.7709 
           0     0.138918 -0.000422731  0.000228599     -81.7721 
           0     0.155744 -0.000411078  0.000220436     -81.7733 
           0     0.173529 -0.000401275  0.000213296     -81.7745 
           0     0.192276 -0.000384187  0.000202788     -81.7758 
           0     0.211984 -0.000366968  0.000191792      -81.777 
           0     0.232655 -0.000363986  0.000187036     -81.7782 
           0     0.254285 -0.000349858  0.000178333     -81.7795 
           0     0.276877  -0.00034315  0.000172101     -81.7807 
           0     0.300431 -0.000335984  0.000165997      -81.782 
           0     0.324946 -0.000329379  0.000160132     -81.7833 
           0     0.350424 -0.000323382  0.000154632     -81.7846 
           0     0.376861 -0.000317948  0.000149495     -81.7858 
           0      0.40426 -0.000312976  0.000144667     -81.7871 
           0     0.432621 -0.000308385  0.000140116     -81.7884 
           0     0.461945 -0.000304092  0.000135827     -81.7897 
           0     0.492228 -0.000300087  0.000131751      -81.791 
           0     0.523472  -0.00029633  0.000127932     -81.7923 
           0     0.555678 -0.000292797  0.000124294     -81.7936 
           0     0.588845 -0.000289482  0.000120831     -81.7949 
           0     0.622976  -0.00028639  0.000117535     -81.7962 
           0     0.658066 -0.000283524  0.000114405     -81.7975 
           0     0.694117 -0.000280891  0.000111423     -81.7988 
           0      0.73113 -0.000278501  0.000108571     -81.8001 
           0     0.769107 -0.000276363  0.000105837     -81.8014 
           0     0.808042 -0.000274484  0.000103213     -81.8027 
           0     0.847939 -0.000272868    0.0001007      -81.804 
           0     0.888797 -0.000271515  9.83027e-05     -81.8052 
           0      0.93062 -0.000270404  9.59863e-05     -81.8065 
           0       0.9734 -0.000269539  9.37577e-05     -81.8078 
           0      1.01714 -0.000268904  9.16165e-05     -81.8091 
           0      1.06185 -0.000268483  8.95548e-05     -81.8103 
           0      1.10751  -0.00026826  8.75635e-05     -81.8116 
           0      1.15414 -0.000268219  8.56482e-05     -81.8129 
           0      1.20173 -0.000268354  8.37854e-05     -81.8141 
           0      1.25028  -0.00026864  8.19912e-05     -81.8154 
           0      1.29979 -0.000269059  8.02864e-05     -81.8166 
           0      1.35026 -0.000269606  7.86302e-05     -81.8179 
           0       1.4017 -0.000270256  7.69943e-05     -81.8191 
           0      1.45409 -0.000270974  7.53944e-05     -81.8203 
           0      1.50745 -0.000271723  7.38482e-05     -81.8215 
           0      1.56176 -0.000272466  7.23642e-05     -81.8228 
           0      1.61705 -0.000273179  7.09358e-05      -81.824 
           0      1.67329 -0.000273853  6.95423e-05     -81.8252 
           0      1.73049 -0.000274501  6.81594e-05     -81.8263 
           0      1.78865 -0.000275157  6.67843e-05     -81.8275 
           0      1.84778 -0.000275874  6.54772e-05     -81.8287 
           0      1.90786 -0.000276742  6.42197e-05     -81.8299 
           0      1.96891 -0.000277837   6.2946e-05      -81.831 
           0      2.03092 -0.000279221  6.16459e-05     -81.8322 
           0      2.09389 -0.000280912  6.03598e-05     -81.8333 
           0      2.15782 -0.000282896  5.91032e-05     -81.8345 
           0      2.22272 -0.000285122  5.78465e-05     -81.8356 
           0      2.28857   -0.0002875   5.6595e-05     -81.8367 
           0      2.35539 -0.000289915  5.53679e-05     -81.8378 
           0      2.42317 -0.000292246  5.41855e-05     -81.8389 
           0      2.49191 -0.000294365  5.30699e-05       -81.84 
           0      2.56161 -0.000296145  5.20599e-05     -81.8411 
           0      2.63226 -0.000297485  5.11465e-05     -81.8422 
           0      2.70389 -0.000298284   5.0368e-05     -81.8432 
           0      2.77648 -0.000298482  4.97176e-05     -81.8443 
           0      2.85002 -0.000298085  4.91911e-05     -81.8453 
           0      2.92453 -0.000297146  4.88136e-05     -81.8464 
           0            3 -0.000295756     4.86e-05     -81.8474 
          20            0 -3.69495e-19 -2.74679e-23     -80.3239 
          20      0.00048  -3.6718e-05 -2.89588e-09     -80.3239 
          20     0.001922 -0.000128951 -1.21797e-08     -80.3239 
          20     0.004326 -0.000232311 -2.98352e-08     -80.3239 
          20      0.00769   -0.0003006  -5.9763e-08     -80.3239 
          20     0.012017 -0.000311827 -1.08296e-07     -80.3239 
          20     0.017304 -0.000279844  -1.8402e-07     -80.3239 
          20     0.023553 -0.000242941 -2.97049e-07     -80.3239 
          20     0.030763 -0.000233171  -4.5748e-07     -80.3239 
          20     0.038936 -0.000247008 -6.74169e-07     -80.3239 
          20     0.048069 -0.000247326 -9.54307e-07     -80.3239 
          20     0.058163 -0.000213432 -1.30519e-06     -80.3239 
          20     0.069219 -0.000196557 -1.73635e-06     -80.3239 
          20     0.081236   -0.0002015 -2.25718e-06     -80.3239 
          20     0.094215 -0.000175336 -2.86881e-06     -80.3239 
          20     0.108155 -0.000161858 -3.57664e-06     -80.3238 
          20     0.123056 -0.000143657 -4.38374e-06     -80.3238 
          20     0.138918  -0.00012627 -5.29151e-06     -80.3238 
          20     0.155744 -0.000110903  -6.3001e-06     -80.3238 
          20     0.173529 -9.61408e-05 -7.40797e-06     -80.3238 
          20     0.192276 -8.07364e-05 -8.61304e-06     -80.3238 
          20     0.211984 -6.59609e-05 -9.91194e-06     -80.3238 
          20     0.232655 -5.44091e-05 -1.12999e-05     -80.3238 
          20     0.254285 -4.21739e-05 -1.27691e-05     -80.3238 
          20     0.276877 -3.23268e-05 -1.43114e-05     -80.3238 
          20     0.300431 -2.35388e-05 -1.59158e-05     -80.3238 
          20     0.324946  -1.5719e-05 -1.75699e-05     -80.3238 
          20     0.350424 -8.70489e-06 -1.92592e-05     -80.3238 
          20     0.376861 -2.29327e-06 -2.09679e-05     -80.3238 
          20      0.40426  3.76445e-06 -2.26804e-05     -80.3237 
          20     0.432621  9.75008e-06 -2.43778e-05     -80.3237 
          20     0.461945  1.58477e-05 -2.60455e-05     -80.3237 
          20     0.492228  2.21594e-05  -2.7671e-05     -80.3237 
          20     0.523472  2.86776e-05 -2.92463e-05     -80.3237 
          20     0.555678  3.52595e-05 -3.07689e-05     -80.3236 
          20     0.588845  4.16187e-05 -3.22428e-05     -80.3236 
          20     0.622976  4.73399e-05  -3.3679e-05     -80.3236 
          20     0.658066  5.19274e-05  -3.5094e-05     -80.3236 
          20     0.694117  5.49071e-05 -3.65081e-05     -80.3235 
          20      0.73113  5.59931e-05 -3.79399e-05     -80.3235 
          20     0.769107  5.50877e-05 -3.93997e-05     -80.3235 
          20     0.808042  5.19149e-05 -4.09043e-05     -80.3234 
          20     0.847939  4.65805e-05  -4.2462e-05     -80.3234 
          20     0.888797  3.92163e-05 -4.40729e-05     -80.3233 
          20      0.93062  3.00295e-05 -4.57331e-05     -80.3233 
          20       0.9734  1.92766e-05 -4.74345e-05     -80.3232 
          20      1.01714  7.23525e-06 -4.91689e-05     -80.3232 
          20      1.06185 -5.80842e-06 -5.09225e-05     -80.3231 
          20      1.10751 -1.96118e-05 -5.26786e-05      -80.323 
          20      1.15414 -3.39808e-05  -5.4423e-05      -80.323 
          20      1.20173 -4.87648e-05  -5.6141e-05     -80.3229 
          20      1.25028 -6.38429e-05 -5.78177e-05     -80.3228 
          20      1.29979 -7.91667e-05  -5.9448e-05     -80.3227 
          20      1.35026 -9.46338e-05 -6.10132e-05     -80.3227 
          20       1.4017 -0.000110237  -6.2507e-05     -80.3226 
          20      1.45409 -0.000125951 -6.39218e-05     -80.3225 
          20      1.50745  -0.00014173 -6.52492e-05     -80.3224 
          20      1.56176  -0.00015751 -6.64805e-05     -80.3223 
          20      1.61705 -0.000173234 -6.76081e-05     -80.3222 
          20      1.67329 -0.000188858 -6.86269e-05      -80.322 
          20      1.73049 -0.000204276 -6.95274e-05     -80.3219 
          20      1.78865 -0.000219445 -7.03073e-05     -80.3218 
          20      1.84778 -0.000234276 -7.09705e-05     -80.3217 
          20      1.90786 -0.000248663 -7.15126e-05     -80.3215 
          20      1.96891 -0.000262484  -7.1913e-05     -80.3214 
          20      2.03092 -0.000275665 -7.21721e-05     -80.3212 
          20      2.09389 -0.000288062 -7.22949e-05     -80.3211 
          20      2.15782 -0.000299499 -7.22576e-05     -80.3209 
          20      2.22272 -0.000309917 -7.20785e-05     -80.3208 
          20      2.28857 -0.000319245 -7.17663e-05     -80.3206 
          20      2.35539 -0.000327431 -7.13277e-05     -80.3204 
          20      2.42317 -0.000334452 -7.07722e-05     -80.3202 
          20      2.49191 -0.000340329 -7.01137e-05       -80.32 
          20      2.56161 -0.000345125 -6.93676e-05     -80.3198 
          20      2.63226 -0.000348928 -6.85412e-05     -80.3196 
          20      2.70389 -0.000351815  -6.7617e-05     -80.3194 
          20      2.77648 -0.000353573 -6.65187e-05     -80.3192 
          20      2.85002 -0.000354621 -6.53922e-05      -80.319 
          20      2.92453 -0.000354959 -6.41576e-05     -80.3187 
          20            3 -0.000354761 -6.28534e-05     -80.3185 
          40            0           -0           -0     -78.6464 
          40      0.00048 -3.44972e-05 -2.10959e-10     -78.6464 
          40     0.001922 -0.000121261  -1.8086e-09     -78.6464 
          40     0.004326 -0.000218853 -7.64723e-09     -78.6464 
          40      0.00769 -0.000284144 -2.23348e-08     -78.6464 
          40     0.012017 -0.000296592 -5.20392e-08     -78.6464 
          40     0.017304 -0.000269106 -1.04102e-07     -78.6464 
          40     0.023553 -0.000237404 -1.86677e-07     -78.6464 
          40     0.030763 -0.000231371 -3.08158e-07     -78.6464 
          40     0.038936 -0.000247683 -4.76746e-07     -78.6464 
          40     0.048069 -0.000251647 -6.99839e-07     -78.6464 
          40     0.058163 -0.000223911 -9.83872e-07     -78.6464 
          40     0.069219 -0.000212249 -1.33401e-06     -78.6464 
          40     0.081236 -0.000221089 -1.75368e-06     -78.6464 
          40     0.094215 -0.000201003 -2.24421e-06     -78.6464 
          40     0.108155 -0.000192783 -2.80537e-06     -78.6464 
          40     0.123056 -0.000180142 -3.43473e-06     -78.6464 
          40     0.138918 -0.000168196 -4.12851e-06     -78.6464 
          40     0.155744 -0.000157994 -4.88186e-06     -78.6464 
          40     0.173529  -0.00014814 -5.68858e-06     -78.6464 
          40     0.192276 -0.000137411 -6.54212e-06     -78.6464 
          40     0.211984  -0.00012696 -7.43542e-06     -78.6464 
          40     0.232655 -0.000119154 -8.36214e-06     -78.6464 
          40     0.254285 -0.000110264 -9.31784e-06     -78.6464 
          40     0.276877 -0.000103435 -1.02947e-05     -78.6464 
          40     0.300431  -9.7142e-05 -1.12896e-05     -78.6464 
          40     0.324946  -9.1571e-05 -1.23024e-05     -78.6464 
          40     0.350424 -8.68157e-05 -1.33327e-05     -78.6464 
          40     0.376861 -8.28892e-05 -1.43796e-05     -78.6464 
          40      0.40426 -7.97454e-05 -1.54437e-05     -78.6464 
          40     0.432621 -7.73116e-05  -1.6527e-05     -78.6464 
          40     0.461945 -7.55237e-05 -1.76342e-05     -78.6464 
          40     0.492228 -7.43565e-05 -1.87723e-05     -78.6464 
          40     0.523472 -7.38353e-05 -1.99495e-05     -78.6464 
          40     0.555678 -7.40111e-05 -2.11724e-05     -78.6464 
          40     0.588845 -7.48738e-05 -2.24392e-05     -78.6464 
          40     0.622976 -7.63561e-05 -2.37443e-05     -78.6464 
          40     0.658066 -7.85682e-05 -2.51321e-05     -78.6464 
          40     0.694117 -8.14717e-05 -2.65992e-05     -78.6464 
          40      0.73113 -8.51637e-05  -2.8139e-05     -78.6464 
          40     0.769107 -8.97048e-05 -2.97479e-05     -78.6464 
          40     0.808042 -9.51164e-05 -3.14238e-05     -78.6464 
          40     0.847939 -0.000101383  -3.3166e-05     -78.6463 
          40     0.888797  -0.00010845 -3.49734e-05     -78.6463 
          40      0.93062 -0.000116233 -3.68434e-05     -78.6463 
          40       0.9734 -0.000124614 -3.87697e-05     -78.6463 
          40      1.01714 -0.000133457 -4.07421e-05     -78.6463 
          40      1.06185 -0.000142609 -4.27449e-05     -78.6463 
          40      1.10751 -0.000151916 -4.47564e-05     -78.6463 
          40      1.15414 -0.000161225 -4.67497e-05     -78.6463 
          40      1.20173 -0.000170398 -4.86938e-05     -78.6463 
          40      1.25028 -0.000179324 -5.05581e-05     -78.6463 
          40      1.29979 -0.000187921 -5.23172e-05     -78.6463 
          40      1.35026 -0.000196144 -5.39606e-05     -78.6463 
          40       1.4017 -0.000203981 -5.55037e-05     -78.6463 
          40      1.45409 -0.000211449 -5.70068e-05     -78.6463 
          40      1.50745 -0.000218575 -5.85847e-05     -78.6463 
          40      1.56176 -0.000225256 -5.96616e-05     -78.6463 
          40      1.61705 -0.000231792 -6.07164e-05     -78.6463 
          40      1.67329 -0.000238139 -6.17142e-05     -78.6463 
          40      1.73049 -0.000244263  -6.2626e-05     -78.6463 
          40      1.78865  -0.00025014 -6.34288e-05     -78.6463 
          40      1.84778 -0.000255757  -6.4106e-05     -78.6463 
          40      1.90786 -0.000261107  -6.4647e-05     -78.6463 
          40      1.96891 -0.000266193 -6.50476e-05     -78.6463 
          40      2.03092 -0.000271028 -6.53091e-05     -78.6463 
          40      2.09389 -0.000275629 -6.54385e-05     -78.6462 
          40      2.15782 -0.000280018 -6.54477e-05     -78.6462 
          40      2.22272 -0.000284225 -6.53526e-05     -78.6462 
          40      2.28857 -0.000288278 -6.51726e-05     -78.6462 
          40      2.35539 -0.000292207 -6.49296e-05     -78.6462 
          40      2.42317 -0.000296043 -6.46467e-05     -78.6462 
          40      2.49191 -0.000299808 -6.43475e-05     -78.6462 
          40      2.56161 -0.000303524 -6.40544e-05     -78.6462 
          40      2.63226 -0.000307201 -6.37876e-05     -78.6462 
          40      2.70389 -0.000310843 -6.35639e-05     -78.6462 
          40      2.77648  -0.00031444 -6.33952e-05     -78.6462 
          40      2.85002 -0.000317969 -6.32878e-05     -78.6461 
          40      2.92453 -0.000321396  -6.3241e-05     -78.6461 
          40            3 -0.000324672 -6.32468e-05     -78.6461 
          60            0           -0           -0     -77.0079 
          60      0.00048 -3.37036e-05 -3.11084e-11     -77.0079 
          60     0.001922 -0.000118262 -2.81291e-11     -77.0079 
          60     0.004326 -0.000212693  3.30102e-10     -77.0079 
          60      0.00769 -0.000274411  1.68184e-09     -77.0079 
          60     0.012017 -0.000283286   5.1355e-09     -77.0079 
          60     0.017304 -0.000252413  1.24606e-08     -77.0079 
          60     0.023553 -0.000217539  2.63199e-08     -77.0079 
          60     0.030763 -0.000208645  5.04822e-08     -77.0079 
          60     0.038936 -0.000222772  9.00171e-08     -77.0079 
          60     0.048069  -0.00022584  1.51355e-07     -77.0079 
          60     0.058163 -0.000198941  2.42304e-07     -77.0079 
          60     0.069219 -0.000189686  3.71917e-07     -77.0079 
          60     0.081236 -0.000202634   5.5032e-07     -77.0079 
          60     0.094215 -0.000188864  7.88462e-07     -77.0079 
          60     0.108155 -0.000188843  1.09746e-06     -77.0079 
          60     0.123056 -0.000186357  1.48852e-06     -77.0079 
          60     0.138918 -0.000186339  1.97201e-06     -77.0079 
          60     0.155744 -0.000189625  2.55712e-06     -77.0079 
          60     0.173529 -0.000194558  3.25107e-06     -77.0079 
          60     0.192276 -0.000199621  4.05943e-06     -77.0079 
          60     0.211984 -0.000205618  4.98538e-06     -77.0079 
          60     0.232655  -0.00021455  6.02951e-06     -77.0079 
          60     0.254285 -0.000222367  7.18843e-06     -77.0079 
          60     0.276877 -0.000231858   8.4601e-06     -77.0079 
          60     0.300431 -0.000241209  9.83744e-06     -77.0079 
          60     0.324946 -0.000250341    1.131e-05     -77.0079 
          60     0.350424 -0.000259126  1.28676e-05     -77.0079 
          60     0.376861 -0.000267396  1.44994e-05     -77.0079 
          60      0.40426 -0.000274976  1.61943e-05     -77.0079 
          60     0.432621 -0.000281717  1.79399e-05     -77.0079 
          60     0.461945 -0.000287524  1.97224e-05     -77.0079 
          60     0.492228 -0.000292385  2.15261e-05     -77.0079 
          60     0.523472 -0.000296379  2.33352e-05     -77.0079 
          60     0.555678 -0.000299643  2.51354e-05     -77.0079 
          60     0.588845 -0.000302283   2.6918e-05     -77.0079 
          60     0.622976 -0.000304371  2.86782e-05     -77.0079 
          60     0.658066 -0.000306179  3.03743e-05     -77.0079 
          60     0.694117 -0.000307844  3.19994e-05     -77.0079 
          60      0.73113 -0.000309582  3.35508e-05     -77.0079 
          60     0.769107 -0.000311542  3.50252e-05     -77.0079 
          60     0.808042 -0.000313796  3.64193e-05     -77.0079 
          60     0.847939  -0.00031635  3.77309e-05     -77.0079 
          60     0.888797 -0.000319146  3.89586e-05     -77.0079 
          60      0.93062 -0.000322074  4.01028e-05     -77.0079 
          60       0.9734 -0.000324986  4.11659e-05     -77.0079 
          60      1.01714 -0.000327714  4.21531e-05     -77.0079 
          60      1.06185  -0.00033009  4.30721e-05     -77.0079 
          60      1.10751 -0.000331962   4.3933e-05     -77.0079 
          60      1.15414 -0.000333217   4.4748e-05     -77.0079 
          60      1.20173 -0.000333795  4.55288e-05     -77.0079 
          60      1.25028 -0.000333699  4.62855e-05     -77.0079 
          60      1.29979 -0.000332992  4.70224e-05     -77.0079 