Variables = x, y, u, v, p

Zone, I=400, F=POINT
         550            0            0            0  -0.00430459 
         550     0.000471  0.000160117  2.37053e-10  -0.00430459 
         550     0.001884  0.000640478   1.0845e-09  -0.00430459 
         550     0.004239   0.00144112  3.08515e-09  -0.00430459 
         550     0.007537   0.00256243  7.47176e-09  -0.00430459 
         550     0.011776   0.00400382   1.6333e-08  -0.00430459 
         550     0.016958   0.00576605  3.25213e-08  -0.00430459 
         550     0.023081   0.00784858   5.9357e-08  -0.00430458 
         550      0.03015    0.0102533  1.00527e-07  -0.00430458 
         550     0.038157    0.0129775   1.6016e-07  -0.00430458 
         550     0.047107    0.0160232  2.43289e-07  -0.00430458 
         550     0.056999    0.0193903  3.55647e-07  -0.00430458 
         550     0.067837    0.0230803  5.03262e-07  -0.00430457 
         550     0.079614    0.0270911  6.92466e-07  -0.00430457 
         550     0.092332    0.0314236  9.30852e-07  -0.00430457 
         550     0.105992    0.0360784  1.22602e-06  -0.00430457 
         550       0.1206     0.041058  1.58658e-06  -0.00430456 
         550     0.136145    0.0463588  2.02118e-06  -0.00430456 
         550     0.152631    0.0519824   2.5394e-06  -0.00430456 
         550     0.170067    0.0579324  3.15166e-06  -0.00430455 
         550     0.188438    0.0642038  3.86804e-06  -0.00430455 
         550     0.207751    0.0707994  4.69995e-06  -0.00430454 
         550     0.228006    0.0777194  5.65913e-06  -0.00430454 
         550     0.249212    0.0849671  6.75836e-06  -0.00430454 
         550     0.271351    0.0925366  8.00947e-06  -0.00430453 
         550     0.294433     0.100431  9.42643e-06  -0.00430453 
         550     0.318456     0.108651  1.10229e-05  -0.00430452 
         550     0.343432       0.1172  1.28141e-05  -0.00430452 
         550     0.369339      0.12607  1.48134e-05  -0.00430451 
         550     0.396189     0.135265  1.70371e-05   -0.0043045 
         550     0.423981     0.144784  1.95009e-05   -0.0043045 
         550     0.452726     0.154632  2.22221e-05  -0.00430449 
         550     0.482403     0.164799  2.52155e-05  -0.00430449 
         550     0.513021     0.175289  2.84991e-05  -0.00430448 
         550     0.544594     0.186105   3.2092e-05  -0.00430447 
         550     0.577096     0.197236   3.6009e-05  -0.00430447 
         550     0.610541     0.208686  4.02699e-05  -0.00430446 
         550     0.644927     0.220453  4.48929e-05  -0.00430445 
         550      0.68027     0.232538  4.98977e-05  -0.00430444 
         550     0.716541      0.24493  5.53009e-05  -0.00430444 
         550     0.753754      0.25763  6.11231e-05  -0.00430443 
         550     0.791909     0.270634   6.7382e-05  -0.00430442 
         550     0.831022     0.283943  7.40984e-05  -0.00430441 
         550     0.871061     0.297542  8.12856e-05   -0.0043044 
         550     0.912043     0.311429  8.89652e-05  -0.00430439 
         550     0.953966     0.325599  9.71554e-05  -0.00430439 
         550     0.996849      0.34005  0.000105878  -0.00430438 
         550      1.04066     0.354762   0.00011514  -0.00430437 
         550      1.08541     0.369732  0.000124962  -0.00430436 
         550      1.13112     0.384956   0.00013536  -0.00430435 
         550      1.17775     0.400411  0.000146342  -0.00430434 
         550      1.22533      0.41609  0.000157925  -0.00430433 
         550      1.27384      0.43198  0.000170121  -0.00430432 
         550      1.32333     0.448073  0.000182934  -0.00430431 
         550      1.37373     0.464339   0.00019637   -0.0043043 
         550      1.42507     0.480768  0.000210449  -0.00430428 
         550      1.47736     0.497341  0.000225154  -0.00430427 
         550      1.53061     0.514045  0.000240488  -0.00430426 
         550      1.58478     0.530844  0.000256437  -0.00430425 
         550      1.63989     0.547723  0.000273008  -0.00430424 
         550      1.69595     0.564656  0.000290193  -0.00430423 
         550      1.75297     0.581625  0.000307986  -0.00430421 
         550      1.81091      0.59859  0.000326356   -0.0043042 
         550      1.86979     0.615527  0.000345282  -0.00430419 
         550      1.92964     0.632415  0.000364741  -0.00430417 
         550       1.9904     0.649209  0.000384682  -0.00430416 
         550      2.05211     0.665884  0.000405077  -0.00430415 
         550      2.11476     0.682408  0.000425889  -0.00430413 
         550      2.17838     0.698753  0.000447085  -0.00430412 
         550      2.24291     0.714873  0.000468607   -0.0043041 
         550      2.30839     0.730741  0.000490415  -0.00430409 
         550       2.3748     0.746322  0.000512451  -0.00430407 
         550      2.44219      0.76159  0.000534655  -0.00430405 
         550      2.51049     0.776498  0.000556929  -0.00430404 
         550      2.57974     0.791022  0.000579201  -0.00430403 
         550      2.64993     0.805131  0.000601408  -0.00430401 
         550      2.72108       0.8188  0.000623562  -0.00430399 
         550      2.79315     0.831992  0.000645453  -0.00430398 
         550      2.86617     0.844687  0.000667161  -0.00430396 
         550      2.94012     0.856863   0.00068855  -0.00430393 
         550      3.01505     0.868504  0.000709476   -0.0043039 
         550      3.09089     0.879586  0.000729873  -0.00430387 
         550      3.16767     0.890098  0.000749715  -0.00430383 
         550      3.24542     0.900036  0.000768968   -0.0043038 
         550      3.32409     0.909385  0.000787565  -0.00430376 
         550       3.4037     0.918147  0.000805469  -0.00430373 
         550      3.48425     0.926323  0.000822627   -0.0043037 
         550      3.56577     0.933921  0.000838918  -0.00430369 
         550       3.6482     0.940945  0.000854316  -0.00430364 
         550      3.73158     0.947408  0.000869109  -0.00430356 
         550       3.8159     0.953328  0.000882886  -0.00430351 
         550      3.90119     0.958724  0.000895687  -0.00430349 
         550       3.9874     0.963612  0.000907567  -0.00430347 
         550      4.07454      0.96802  0.000918694  -0.00430347 
         550      4.16263      0.97197  0.000928895  -0.00430346 
         550      4.25169     0.975495  0.000938286  -0.00430341 
         550      4.34166     0.978619  0.000946926  -0.00430339 
         550      4.43258     0.981371  0.000954677   -0.0043035 
         550      4.52447     0.983779  0.000961924  -0.00430354 
         550      4.61726     0.985876  0.000968371  -0.00430354 
         550        4.711     0.987691  0.000974115  -0.00430352 
         550      4.80569      0.98925   0.00097921  -0.00430349 
         550      4.90135     0.990581  0.000983688  -0.00430344 
         550      4.99791     0.991706  0.000987682  -0.00430336 
         550      5.09542     0.992654  0.000991455  -0.00430326 
         550      5.19387     0.993447  0.000994885  -0.00430317 
         550       5.2933     0.994104   0.00099763  -0.00430311 
         550      5.39364     0.994644    0.0010003  -0.00430305 
         550      5.49491     0.995085   0.00100249    -0.004303 
         550      5.59713     0.995444   0.00100455  -0.00430296 
         550      5.70033     0.995732   0.00100644   -0.0043029 
         550      5.80443     0.995963   0.00100812  -0.00430283 
         550      5.90948     0.996145   0.00100962  -0.00430276 
         550      6.01551     0.996288   0.00101103   -0.0043027 
         550      6.12244     0.996399   0.00101235  -0.00430263 
         550      6.23031     0.996484   0.00101352  -0.00430258 
         550      6.33912     0.996549   0.00101456  -0.00430251 
         550      6.44892     0.996598   0.00101578  -0.00430244 
         550      6.55962     0.996635   0.00101682  -0.00430241 
         550      6.67126     0.996664    0.0010176  -0.00430238 
         550      6.78384     0.996683   0.00101915  -0.00430228 
         550      6.89741     0.996699   0.00101987  -0.00430223 
         550      7.01187     0.996711   0.00102142  -0.00430223 
         550      7.12728     0.996717   0.00102269  -0.00430226 
         550      7.24363     0.996723   0.00102349  -0.00430225 
         550      7.36097     0.996728   0.00102437   -0.0043022 
         550       7.4792     0.996731   0.00102541  -0.00430216 
         550      7.59838     0.996732   0.00102651  -0.00430212 
         550      7.71854     0.996732   0.00102761   -0.0043021 
         550       7.8396     0.996734   0.00102868   -0.0043021 
         550      7.96161     0.996735   0.00102975  -0.00430209 
         550      8.08455     0.996737   0.00103084  -0.00430206 
         550      8.20849     0.996737   0.00103196  -0.00430202 
         550      8.33332     0.996736   0.00103309  -0.00430196 
         550      8.45909     0.996734    0.0010342  -0.00430191 
         550       8.5858     0.996735    0.0010353  -0.00430189 
         550      8.71351     0.996738   0.00103645   -0.0043019 
         550       8.8421     0.996738   0.00103756  -0.00430188 
         550      8.97164     0.996738   0.00103861  -0.00430182 
         550      9.10212     0.996736   0.00103981  -0.00430174 
         550       9.2336     0.996735   0.00104103  -0.00430169 
         550      9.36596     0.996736   0.00104222  -0.00430167 
         550      9.49927     0.996738   0.00104334  -0.00430166 
         550      9.63352      0.99674    0.0010444  -0.00430164 
         550      9.76877     0.996741   0.00104544  -0.00430159 
         550       9.9049      0.99674   0.00104652  -0.00430155 
         550       10.042     0.996739   0.00104764  -0.00430157 
         550      10.1801      0.99674   0.00104895  -0.00430152 
         550       10.319     0.996739    0.0010503  -0.00430148 
         550      10.4589     0.996739   0.00105159  -0.00430145 
         550      10.5998     0.996739   0.00105282   -0.0043014 
         550      10.7416     0.996742   0.00105405  -0.00430134 
         550      10.8843     0.996744   0.00105532  -0.00430128 
         550       11.028     0.996743   0.00105664  -0.00430123 
         550      11.1726     0.996738   0.00105792   -0.0043012 
         550      11.3182     0.996739   0.00105888  -0.00430114 
         550      11.4647      0.99674   0.00106043   -0.0043011 
         550      11.6122     0.996742   0.00106172  -0.00430101 
         550      11.7605     0.996743   0.00106291  -0.00430091 
         550      11.9099     0.996743   0.00106415  -0.00430083 
         550      12.0602     0.996743   0.00106547  -0.00430075 
         550      12.2114     0.996743   0.00106686  -0.00430066 
         550      12.3636     0.996744   0.00106827  -0.00430057 
         550      12.5167     0.996744   0.00106963  -0.00430049 
         550      12.6707     0.996745   0.00107091   -0.0043004 
         550      12.8257     0.996744   0.00107212  -0.00430034 
         550      12.9817     0.996743    0.0010733   -0.0043003 
         550      13.1386     0.996742   0.00107453  -0.00430028 
         550      13.2964     0.996743   0.00107587  -0.00430029 
         550      13.4551     0.996744   0.00107735   -0.0043003 
         550      13.6149     0.996746   0.00107889  -0.00430031 
         550      13.7755     0.996746   0.00108028  -0.00430032 
         550      13.9371     0.996744   0.00108113  -0.00430039 
         550      14.0996     0.996747   0.00108272  -0.00430068 
         550      14.2631     0.996755   0.00108431    -0.004301 
         550      14.4275     0.996744   0.00108601  -0.00430065 
         550      14.5928     0.996739     0.001088  -0.00430033 
         550      14.7592     0.996742   0.00108947  -0.00430026 
         550      14.9264     0.996749   0.00109062  -0.00430027 
         550      15.0946     0.996753   0.00109171  -0.00430029 
         550      15.2637     0.996754   0.00109296  -0.00430027 
         550      15.4338     0.996752   0.00109444   -0.0043002 
         550      15.6048     0.996748   0.00109613  -0.00430011 
         550      15.7767     0.996745   0.00109792  -0.00430001 
         550      15.9496     0.996745    0.0010997  -0.00429993 
         550      16.1235     0.996747    0.0011014  -0.00429989 
         550      16.2982      0.99675   0.00110297  -0.00429989 
         550      16.4739     0.996752   0.00110445   -0.0042999 
         550      16.6506     0.996752   0.00110592  -0.00429991 
         550      16.8282     0.996751   0.00110742  -0.00429987 
         550      17.0068      0.99675   0.00110896  -0.00429976 
         550      17.1862     0.996753   0.00111048  -0.00429958 
         550      17.3667     0.996753   0.00111191  -0.00429941 
         550      17.5481     0.996741   0.00111334  -0.00429927 
         550      17.7304     0.996751   0.00111475  -0.00429895 
         550      17.9136     0.996761   0.00111638  -0.00429872 
         550      18.0979     0.996762   0.00111819   -0.0042986 
         550       18.283     0.996757   0.00111999  -0.00429854 
         550      18.4691     0.996751   0.00112166  -0.00429848 
         550      18.6561     0.996747   0.00112319  -0.00429836 
         550      18.8441     0.996747   0.00112471  -0.00429821 
         550       19.033     0.996751   0.00112638  -0.00429808 
         550      19.2228     0.996755   0.00112823  -0.00429806 
         550      19.4136     0.996757   0.00113008  -0.00429818 
         550      19.6054     0.996756   0.00113179  -0.00429828 
         550       19.798     0.996763   0.00113412  -0.00429785 
         550      19.9917     0.996758   0.00113536   -0.0042986 
         550      20.1862     0.996754   0.00113667  -0.00429888 
         550      20.3818     0.996749   0.00113841  -0.00429877 
         550      20.5782     0.996747   0.00114053  -0.00429849 
         550      20.7756     0.996749   0.00114278  -0.00429819 
         550       20.974     0.996756   0.00114477  -0.00429798 
         550      21.1732     0.996766   0.00114618  -0.00429793 
         550      21.3734     0.996773   0.00114705  -0.00429799 
         550      21.5745     0.996768   0.00114839  -0.00429791 
         550      21.7767     0.996752   0.00115094  -0.00429769 
         550      21.9797     0.996751   0.00115142    -0.004298 
         550      22.1837     0.996754   0.00115313  -0.00429793 
         550      22.3886     0.996756   0.00115568  -0.00429774 
         550      22.5945     0.996756   0.00115848  -0.00429757 
         550      22.8013     0.996755   0.00116101  -0.00429746 
         550      23.0091     0.996754   0.00116296  -0.00429741 
         550      23.2177     0.996755   0.00116431   -0.0042974 
         550      23.4274     0.996758   0.00116523  -0.00429741 
         550       23.638     0.996761   0.00116603   -0.0042974 
         550      23.8495     0.996764   0.00116707  -0.00429735 
         550       24.062     0.996766   0.00116858  -0.00429724 
         550      24.2754     0.996766   0.00117065  -0.00429701 
         550      24.4897     0.996765    0.0011731   -0.0042966 
         550       24.705     0.996765   0.00117554  -0.00429587 
         550      24.9213     0.996759   0.00117877  -0.00429607 
         550      25.1385     0.996754   0.00118183   -0.0042963 
         550      25.3566     0.996751   0.00118424  -0.00429623 
         550      25.5756     0.996751   0.00118594  -0.00429597 
         550      25.7957     0.996753     0.001187  -0.00429565 
         550      26.0166     0.996757   0.00118771  -0.00429536 
         550      26.2385     0.996761   0.00118866   -0.0042952 
         550      26.4613     0.996763   0.00119048  -0.00429522 
         550      26.6851     0.996764   0.00119349  -0.00429537 
         550      26.9098     0.996764   0.00119676  -0.00429552 
         550      27.1354     0.996771   0.00119683  -0.00429539 
         550      27.3621     0.996786   0.00119686  -0.00429473 
         550      27.5896     0.996782   0.00120275  -0.00429441 
         550      27.8181     0.996773   0.00120419  -0.00429435 
         550      28.0475     0.996766   0.00120452   -0.0042944 
         550      28.2779     0.996761   0.00120532  -0.00429446 
         550      28.5092     0.996758   0.00120704  -0.00429451 
         550      28.7414     0.996759    0.0012093  -0.00429454 
         550      28.9746     0.996772   0.00121102  -0.00429458 
         550      29.2088     0.996777    0.0012139  -0.00429506 
         550      29.4439     0.996761   0.00121914  -0.00429564 
         550      29.6799     0.996757   0.00122267  -0.00429577 
         550      29.9168     0.996759   0.00122459  -0.00429562 
         550      30.1548     0.996763    0.0012254  -0.00429534 
         550      30.3936     0.996768    0.0012258  -0.00429502 
         550      30.6334     0.996772   0.00122647  -0.00429475 
         550      30.8742     0.996774   0.00122795  -0.00429456 
         550      31.1158     0.996775   0.00123044  -0.00429447 
         550      31.3584     0.996774    0.0012338  -0.00429446 
         550       31.602     0.996771   0.00123757   -0.0042945 
         550      31.8465     0.996767   0.00124113  -0.00429458 
         550      32.0919     0.996762   0.00124389  -0.00429465 
         550      32.3383     0.996759   0.00124557  -0.00429469 
         550      32.5856     0.996757   0.00124633  -0.00429471 
         550       32.834     0.996757   0.00124693   -0.0042947 
         550      33.0831      0.99676   0.00124847  -0.00429466 
         550      33.3333     0.996765   0.00125186  -0.00429462 
         550      33.5843     0.996772   0.00125661  -0.00429454 
         550      33.8364     0.996782   0.00125878  -0.00429437 
         550      34.0894       0.9968   0.00125756  -0.00429413 
         550      34.3433     0.996798   0.00126383  -0.00429407 
         550      34.5981      0.99678   0.00126493  -0.00429389 
         550       34.854     0.996766   0.00126494  -0.00429364 
         550      35.1107     0.996761   0.00126571  -0.00429335 
         550      35.3684     0.996764   0.00126769  -0.00429306 
         550      35.6271     0.996771   0.00127062  -0.00429278 
         550      35.8867     0.996779   0.00127397  -0.00429254 
         550      36.1472     0.996784   0.00127723  -0.00429234 
         550      36.4086     0.996784   0.00128004  -0.00429219 
         550      36.6711      0.99678   0.00128231  -0.00429209 
         550      36.9344     0.996773   0.00128414  -0.00429204 
         550      37.1987     0.996765   0.00128575  -0.00429202 
         550      37.4639     0.996759   0.00128744  -0.00429202 
         550      37.7301     0.996756   0.00128943    -0.004292 
         550      37.9972     0.996757   0.00129183  -0.00429196 
         550      38.2652     0.996762   0.00129458  -0.00429187 
         550      38.5342     0.996769   0.00129749  -0.00429173 
         550      38.8042     0.996777   0.00130028  -0.00429156 
         550      39.0751     0.996783   0.00130278  -0.00429143 
         550      39.3469     0.996786   0.00130515  -0.00429146 
         550      39.6197     0.996785   0.00130811  -0.00429184 
         550      39.8934     0.996778   0.00130932  -0.00429164 
         550       40.168     0.996772   0.00130925  -0.00429108 
         550      40.4436     0.996773    0.0013106   -0.0042908 
         550      40.7202      0.99678   0.00131412  -0.00429067 
         550      40.9977     0.996788   0.00131937   -0.0042904 
         550      41.2761     0.996778    0.0013232  -0.00428947 
         550      41.5554      0.99675   0.00132333  -0.00428893 
         550      41.8358     0.996778   0.00132785  -0.00429136 
         550       42.117     0.996788   0.00132809    -0.004292 
         550      42.3992     0.996788   0.00132843  -0.00429184 
         550      42.6823     0.996782   0.00133028  -0.00429149 
         550      42.9664     0.996775   0.00133342  -0.00429129 
         550      43.2514     0.996769   0.00133698  -0.00429138 
         550      43.5373     0.996768   0.00134003   -0.0042917 
         550      43.8243     0.996773   0.00134188  -0.00429216 
         550      44.1121     0.996788   0.00134216  -0.00429259 
         550      44.4009     0.996786   0.00134414  -0.00429281 
         550      44.6906     0.996781   0.00134733  -0.00429278 
         550      44.9813     0.996779   0.00135066  -0.00429263 
         550      45.2729     0.996778   0.00135396  -0.00429245 
         550      45.5654     0.996779   0.00135717  -0.00429225 
         550      45.8589     0.996779   0.00136028  -0.00429204 
         550      46.1534      0.99678   0.00136331  -0.00429177 
         550      46.4488      0.99678   0.00136625  -0.00429142 
         550      46.7451      0.99678   0.00136912  -0.00429094 
         550      47.0423     0.996779   0.00137192  -0.00429035 
         550      47.3406     0.996778    0.0013746  -0.00428971 
         550      47.6397     0.996778   0.00137714  -0.00428911 
         550      47.9398     0.996777   0.00137947   -0.0042887 
         550      48.2409     0.996778   0.00138156  -0.00428867 
         550      48.5428     0.996779   0.00138338  -0.00428917 
         550      48.8457     0.996781   0.00138496  -0.00429032 
         550      49.1496     0.996785   0.00138645  -0.00429207 
         550      49.4545     0.996787   0.00138814  -0.00429414 
         550      49.7602     0.996785    0.0013906  -0.00429582 
         550      50.0668     0.996771   0.00139478  -0.00429586 
         550      50.3744     0.996746   0.00140086  -0.00429289 
         550      50.6831     0.996825    0.0013986  -0.00429521 
         550      50.9926     0.996838   0.00140317  -0.00429518 
         550       51.303      0.99682   0.00140897  -0.00429391 
         550      51.6144     0.996793   0.00141337   -0.0042922 
         550      51.9268      0.99677   0.00141568  -0.00429062 
         550        52.24     0.996756   0.00141626  -0.00428949 
         550      52.5542     0.996752   0.00141596  -0.00428898 
         550      52.8694     0.996758   0.00141574  -0.00428913 
         550      53.1856     0.996768   0.00141633  -0.00428984 
         550      53.5026     0.996781    0.0014182  -0.00429093 
         550      53.8205     0.996793   0.00142152  -0.00429214 
         550      54.1396     0.996803   0.00142624  -0.00429317 
         550      54.4594     0.996812   0.00143222  -0.00429364 
         550      54.7802     0.996821   0.00143945  -0.00429315 
         550      55.1019       0.9968   0.00144615  -0.00429357 
         550      55.4247     0.996782   0.00145144   -0.0042938 
         550      55.7483     0.996773   0.00145501  -0.00429344 
         550      56.0729     0.996771    0.0014566  -0.00429258 
         550      56.3984     0.996776    0.0014563  -0.00429138 
         550       56.725     0.996785   0.00145464     -0.00429 
         550      57.0523     0.996795   0.00145246  -0.00428858 
         550      57.3807     0.996804    0.0014508  -0.00428728 
         550      57.7099     0.996809   0.00145073  -0.00428621 
         550      58.0403     0.996807   0.00145308  -0.00428543 
         550      58.3714     0.996798    0.0014582  -0.00428501 
         550      58.7035     0.996783   0.00146577  -0.00428495 
         550      59.0367     0.996765   0.00147472  -0.00428523 
         550      59.3707     0.996751   0.00148321  -0.00428584 
         550      59.7056     0.996748   0.00148901   -0.0042867 
         550      60.0414     0.996763   0.00149007  -0.00428777 
         550      60.3784     0.996798   0.00148566  -0.00428897 
         550      60.7161     0.996843   0.00147798  -0.00429021 
         550      61.0548     0.996874   0.00147455  -0.00429142 
         550      61.3944     0.996832   0.00149148  -0.00429247 
         550      61.7351     0.996745   0.00149884  -0.00429182 
         550      62.0767     0.996748   0.00148266  -0.00428908 
         550      62.4191     0.996749   0.00148614   -0.0042863 
         550      62.7625     0.996747   0.00149745  -0.00428389 
         550       63.107     0.996743   0.00150963  -0.00428209 
         550      63.4523     0.996738   0.00151914    -0.004281 
         550      63.7985     0.996738   0.00152481   -0.0042806 
         550      64.1458     0.996745   0.00152691  -0.00428081 
         550      64.4939     0.996758   0.00152648   -0.0042815 
         550       64.843     0.996778   0.00152483  -0.00428251 
         550      65.1929     0.996801   0.00152322  -0.00428367 
         550       65.544     0.996825   0.00152262  -0.00428483 
         550      65.8959     0.996846   0.00152364  -0.00428585 
         550      66.2487     0.996859   0.00152646  -0.00428664 
         550      66.6025     0.996862   0.00153093  -0.00428714 
         550      66.9573     0.996855   0.00153664  -0.00428733 
         550       67.313     0.996836   0.00154299  -0.00428724 
         550      67.6695     0.996808   0.00154933  -0.00428694 
         550      68.0271     0.996775   0.00155507  -0.00428652 
         550      68.3857     0.996742   0.00155971  -0.00428609 
         550      68.7451     0.996714   0.00156293  -0.00428579 
         550      69.1055     0.996697   0.00156453  -0.00428571 
         550      69.4669     0.996696   0.00156442  -0.00428594 
         550      69.8291     0.996714    0.0015625   -0.0042865 
         550      70.1923     0.996749   0.00156395  -0.00428705 
         550      70.5564     0.996796   0.00156597  -0.00428782 
         550      70.9217     0.996846   0.00156826  -0.00428871 
         550      71.2877      0.99689   0.00157121  -0.00428956 
         550      71.6546     0.996915   0.00157506  -0.00429023 
         550      72.0225     0.996909   0.00157983  -0.00429064 
         550      72.3915     0.996865   0.00158528  -0.00429073 
         550      72.7613     0.996787   0.00159091   -0.0042905 
         550       73.132     0.996696     0.001596  -0.00428998 
         550      73.5036     0.996646    0.0015998  -0.00428925 
         550      73.8764     0.996737   0.00160173  -0.00428836 
         550      74.2499     0.997134   0.00160186  -0.00428734 
         550      74.6244     0.998095    0.0016015  -0.00428616 
         550           75            1   0.00160405  -0.00428459 
