Variables = x, y, u, v, p

Zone, I=400, F=POINT
         950            0  8.98349e-15  9.52423e-21 -0.000519558 
         950     0.000471  0.000128515  1.42009e-10 -0.000519558 
         950     0.001884  0.000514072   6.4968e-10 -0.000519558 
         950     0.004239   0.00115671   1.8482e-09 -0.000519558 
         950     0.007537   0.00205678   4.4761e-09 -0.000519558 
         950     0.011776   0.00321382  9.78474e-09 -0.000519557 
         950     0.016958   0.00462851  1.94831e-08 -0.000519557 
         950     0.023081   0.00630044  3.55607e-08 -0.000519556 
         950      0.03015   0.00823116  6.02266e-08 -0.000519555 
         950     0.038157    0.0104187  9.59559e-08 -0.000519554 
         950     0.047107    0.0128646  1.45765e-07 -0.000519553 
         950     0.056999     0.015569  2.13089e-07 -0.000519551 
         950     0.067837    0.0185331  3.01543e-07  -0.00051955 
         950     0.079614    0.0217553  4.14924e-07 -0.000519548 
         950     0.092332    0.0252367  5.57784e-07 -0.000519547 
         950     0.105992    0.0289776  7.34686e-07 -0.000519545 
         950       0.1206    0.0329803  9.50788e-07 -0.000519543 
         950     0.136145    0.0372421  1.21128e-06 -0.000519541 
         950     0.152631    0.0417645  1.52192e-06 -0.000519539 
         950     0.170067    0.0465504  1.88896e-06 -0.000519537 
         950     0.188438    0.0515962  2.31845e-06 -0.000519534 
         950     0.207751    0.0569042  2.81726e-06 -0.000519532 
         950     0.228006    0.0624749  3.39243e-06 -0.000519529 
         950     0.249212    0.0683112  4.05164e-06 -0.000519526 
         950     0.271351    0.0744087  4.80206e-06 -0.000519523 
         950     0.294433    0.0807707  5.65202e-06  -0.00051952 
         950     0.318456    0.0873969   6.6098e-06 -0.000519517 
         950     0.343432    0.0942912  7.68463e-06 -0.000519514 
         950     0.369339     0.101448  8.88458e-06 -0.000519511 
         950     0.396189     0.108871  1.02195e-05 -0.000519507 
         950     0.423981     0.116559  1.16988e-05 -0.000519504 
         950     0.452726     0.124518  1.33331e-05   -0.0005195 
         950     0.482403      0.13274  1.51315e-05 -0.000519496 
         950     0.513021     0.141228  1.71049e-05 -0.000519492 
         950     0.544594     0.149987   1.9265e-05 -0.000519488 
         950     0.577096     0.159008   2.1621e-05 -0.000519484 
         950     0.610541     0.168297  2.41852e-05  -0.00051948 
         950     0.644927     0.177851  2.69691e-05 -0.000519475 
         950      0.68027     0.187674  2.99845e-05 -0.000519471 
         950     0.716541     0.197759  3.32424e-05 -0.000519466 
         950     0.753754     0.208106  3.67558e-05 -0.000519461 
         950     0.791909     0.218717  4.05364e-05 -0.000519456 
         950     0.831022     0.229593  4.45978e-05 -0.000519451 
         950     0.871061     0.240723  4.89489e-05 -0.000519446 
         950     0.912043     0.252111  5.36042e-05 -0.000519441 
         950     0.953966     0.263753  5.85762e-05 -0.000519436 
         950     0.996849     0.275652  6.38798e-05  -0.00051943 
         950      1.04066     0.287795  6.95225e-05 -0.000519425 
         950      1.08541     0.300182   7.5518e-05 -0.000519419 
         950      1.13112     0.312815    8.188e-05 -0.000519413 
         950      1.17775     0.325679  8.86156e-05 -0.000519407 
         950      1.22533     0.338772  9.57394e-05 -0.000519401 
         950      1.27384      0.35209  0.000103263 -0.000519395 
         950      1.32333     0.365631  0.000111192 -0.000519389 
         950      1.37373     0.379376  0.000119544 -0.000519383 
         950      1.42507     0.393324  0.000128322 -0.000519376 
         950      1.47736     0.407464  0.000137531 -0.000519369 
         950      1.53061     0.421794  0.000147184 -0.000519362 
         950      1.58478      0.43629   0.00015728 -0.000519355 
         950      1.63989     0.450948   0.00016783 -0.000519349 
         950      1.69595     0.465754  0.000178837 -0.000519342 
         950      1.75297     0.480701  0.000190309 -0.000519336 
         950      1.81091     0.495763  0.000202236 -0.000519328 
         950      1.86979     0.510931   0.00021462  -0.00051932 
         950      1.92964     0.526194  0.000227463 -0.000519312 
         950       1.9904     0.541522  0.000240748 -0.000519303 
         950      2.05211     0.556903  0.000254475 -0.000519295 
         950      2.11476     0.572318  0.000268634 -0.000519286 
         950      2.17838     0.587753  0.000283221 -0.000519278 
         950      2.24291     0.603174  0.000298211  -0.00051927 
         950      2.30839     0.618564  0.000313595 -0.000519262 
         950       2.3748     0.633901  0.000329354 -0.000519253 
         950      2.44219     0.649167   0.00034547 -0.000519243 
         950      2.51049     0.664326  0.000361904 -0.000519232 
         950      2.57974     0.679358  0.000378635  -0.00051922 
         950      2.64993     0.694238  0.000395635 -0.000519209 
         950      2.72108     0.708947  0.000412897 -0.000519204 
         950      2.79315     0.723446  0.000430281 -0.000519187 
         950      2.86617     0.737716  0.000447897 -0.000519167 
         950      2.94012      0.75173  0.000465616  -0.00051915 
         950      3.01505     0.765469  0.000483435 -0.000519135 
         950      3.09089     0.778898  0.000501323 -0.000519128 
         950      3.16767     0.791998  0.000519192 -0.000519131 
         950      3.24542      0.80475  0.000536951 -0.000519141 
         950      3.32409     0.817122  0.000554581 -0.000519156 
         950       3.4037       0.8291  0.000572088 -0.000519158 
         950      3.48425     0.840663  0.000589445 -0.000519142 
         950      3.56577     0.851801  0.000606603 -0.000519115 
         950       3.6482     0.862488  0.000623456 -0.000519082 
         950      3.73158     0.872716  0.000639911 -0.000519052 
         950       3.8159     0.882473  0.000655926 -0.000519035 
         950      3.90119     0.891756  0.000671626 -0.000519018 
         950       3.9874     0.900551  0.000686768  -0.00051901 
         950      4.07454     0.908857  0.000701533 -0.000519024 
         950      4.16263     0.916677  0.000715714 -0.000519023 
         950      4.25169     0.924013  0.000729298 -0.000518994 
         950      4.34166     0.930864  0.000742286 -0.000518954 
         950      4.43258     0.937239   0.00075469 -0.000518925 
         950      4.52447      0.94315  0.000766521 -0.000518916 
         950      4.61726     0.948606  0.000777756 -0.000518916 
         950        4.711     0.953622  0.000788338 -0.000518892 
         950      4.80569     0.958213   0.00079821 -0.000518848 
         950      4.90135       0.9624  0.000807671 -0.000518925 
         950      4.99791     0.966194  0.000816385 -0.000519055 
         950      5.09542     0.969623  0.000824482 -0.000519031 
         950      5.19387     0.972704  0.000832083 -0.000518935 
         950       5.2933     0.975458  0.000839124 -0.000518866 
         950      5.39364     0.977909  0.000845247 -0.000518961 
         950      5.49491      0.98008  0.000851421 -0.000518755 
         950      5.59713     0.981992  0.000856641 -0.000518749 
         950      5.70033     0.983667  0.000861474  -0.00051877 
         950      5.80443     0.985127  0.000866048 -0.000518755 
         950      5.90948     0.986391  0.000870291 -0.000518703 
         950      6.01551     0.987481  0.000874102 -0.000518641 
         950      6.12244     0.988414  0.000877456 -0.000518594 
         950      6.23031     0.989209   0.00088044 -0.000518575 
         950      6.33912     0.989881  0.000883201 -0.000518577 
         950      6.44892     0.990447  0.000885853 -0.000518579 
         950      6.55962     0.990921   0.00088838 -0.000518555 
         950      6.67126     0.991314  0.000890636 -0.000518497 
         950      6.78384     0.991638  0.000892552 -0.000518435 
         950      6.89741     0.991905  0.000894698 -0.000518457 
         950      7.01187      0.99212  0.000896248 -0.000518559 
         950      7.12728     0.992296  0.000898048  -0.00051857 
         950      7.24363     0.992437  0.000899521 -0.000518646 
         950      7.36097     0.992549  0.000901445 -0.000518624 
         950       7.4792     0.992639  0.000903127  -0.00051857 
         950      7.59838     0.992709  0.000904501 -0.000518529 
         950      7.71854     0.992762  0.000905749 -0.000518503 
         950       7.8396     0.992804  0.000907021 -0.000518487 
         950      7.96161     0.992836   0.00090839  -0.00051847 
         950      8.08455     0.992862  0.000909852 -0.000518444 
         950      8.20849     0.992881  0.000911349 -0.000518403 
         950      8.33332     0.992896  0.000912813 -0.000518344 
         950      8.45909     0.992907  0.000914199  -0.00051827 
         950       8.5858     0.992916   0.00091551 -0.000518186 
         950      8.71351      0.99292  0.000916772 -0.000518074 
         950       8.8421     0.992923  0.000918043 -0.000517967 
         950      8.97164     0.992926  0.000919452 -0.000517891 
         950      9.10212     0.992928  0.000921031 -0.000517834 
         950       9.2336     0.992931  0.000922655 -0.000517789 
         950      9.36596     0.992932  0.000924063 -0.000517746 
         950      9.49927     0.992932  0.000925093  -0.00051769 
         950      9.63352     0.992933  0.000926303 -0.000517582 
         950      9.76877     0.992935  0.000927567 -0.000517605 
         950       9.9049     0.992937  0.000929289 -0.000517842 
         950       10.042     0.992935  0.000930926 -0.000517996 
         950      10.1801     0.992934  0.000932333 -0.000517951 
         950       10.319     0.992935  0.000933839 -0.000517905 
         950      10.4589     0.992936  0.000935295 -0.000517858 
         950      10.5998     0.992937  0.000936697 -0.000517812 
         950      10.7416     0.992937  0.000938093 -0.000517769 
         950      10.8843     0.992937  0.000939528 -0.000517729 
         950       11.028     0.992937  0.000941023 -0.000517693 
         950      11.1726     0.992938   0.00094257 -0.000517662 
         950      11.3182     0.992938  0.000944143 -0.000517633 
         950      11.4647     0.992939  0.000945712 -0.000517607 
         950      11.6122     0.992939  0.000947259 -0.000517582 
         950      11.7605     0.992939  0.000948782 -0.000517558 
         950      11.9099     0.992939  0.000950302 -0.000517534 
         950      12.0602     0.992939  0.000951845 -0.000517511 
         950      12.2114     0.992939  0.000953431 -0.000517491 
         950      12.3636     0.992939  0.000955058 -0.000517476 
         950      12.5167     0.992939  0.000956692 -0.000517473 
         950      12.6707      0.99294  0.000958307 -0.000517486 
         950      12.8257     0.992942  0.000959951 -0.000517524 
         950      12.9817     0.992945  0.000961769 -0.000517528 
         950      13.1386     0.992941  0.000963394 -0.000517452 
         950      13.2964     0.992937  0.000964907 -0.000517423 
         950      13.4551     0.992938  0.000966519 -0.000517391 
         950      13.6149     0.992946  0.000968314 -0.000517323 
         950      13.7755     0.992949  0.000969634 -0.000517195 
         950      13.9371     0.992941  0.000971674 -0.000517284 
         950      14.0996      0.99294   0.00097314 -0.000517232 
         950      14.2631     0.992942  0.000974825 -0.000517135 
         950      14.4275     0.992944  0.000976723 -0.000517059 
         950      14.5928     0.992945  0.000978642 -0.000517034 
         950      14.7592     0.992945  0.000980458  -0.00051706 
         950      14.9264     0.992945  0.000982158 -0.000517117 
         950      15.0946     0.992945  0.000983795  -0.00051718 
         950      15.2637     0.992946  0.000985435 -0.000517238 
         950      15.4338     0.992945   0.00098719 -0.000517316 
         950      15.6048     0.992945  0.000989005 -0.000517269 
         950      15.7767     0.992945  0.000990801 -0.000517078 
         950      15.9496     0.992946  0.000992692 -0.000516982 
         950      16.1235     0.992946  0.000994468 -0.000517025 
         950      16.2982     0.992946  0.000996018 -0.000517218 
         950      16.4739     0.992949  0.000997724 -0.000517528 
         950      16.6506     0.992949   0.00100022 -0.000517472 
         950      16.8282     0.992946   0.00100214 -0.000517161 
         950      17.0068      0.99295   0.00100399  -0.00051714 
         950      17.1862     0.992951   0.00100582 -0.000517181 
         950      17.3667      0.99295   0.00100769 -0.000517183 
         950      17.5481     0.992947    0.0010096 -0.000517127 
         950      17.7304     0.992945   0.00101157 -0.000517036 
         950      17.9136     0.992945   0.00101357 -0.000516947 
         950      18.0979     0.992947   0.00101556 -0.000516892 
         950       18.283      0.99295   0.00101752 -0.000516887 
         950      18.4691     0.992953   0.00101943 -0.000516928 
         950      18.6561     0.992954   0.00102128 -0.000516992 
         950      18.8441     0.992953    0.0010231 -0.000517049 
         950       19.033     0.992951   0.00102492 -0.000517067 
         950      19.2228     0.992949   0.00102702 -0.000516802 
         950      19.4136     0.992948   0.00102918 -0.000516495 
         950      19.6054     0.992951   0.00103125 -0.000516303 
         950       19.798     0.992956   0.00103321 -0.000516275 
         950      19.9917     0.992961   0.00103503 -0.000516381 
         950      20.1862     0.992959   0.00103694 -0.000516436 
         950      20.3818     0.992947    0.0010398 -0.000515998 
         950      20.5782      0.99293   0.00104324 -0.000515445 
         950      20.7756     0.992956   0.00104318 -0.000516762 
         950       20.974     0.992944   0.00104622 -0.000517528 
         950      21.1732     0.992951   0.00104811 -0.000517383 
         950      21.3734     0.992964   0.00104949 -0.000516805 
         950      21.5745     0.992967    0.0010511 -0.000516105 
         950      21.7767     0.992967   0.00105313 -0.000515849 
         950      21.9797     0.992961     0.001056 -0.000515856 
         950      22.1837     0.992953   0.00105897 -0.000515961 
         950      22.3886     0.992947   0.00106144 -0.000516119 
         950      22.5945     0.992944   0.00106321 -0.000516298 
         950      22.8013     0.992946   0.00106446 -0.000516475 
         950      23.0091     0.992952   0.00106559 -0.000516631 
         950      23.2177     0.992958   0.00106706 -0.000516746 
         950      23.4274     0.992963   0.00106921 -0.000516803 
         950       23.638     0.992966   0.00107215 -0.000516788 
         950      23.8495     0.992965   0.00107565 -0.000516698 
         950       24.062     0.992961   0.00107925 -0.000516539 
         950      24.2754     0.992957   0.00108238 -0.000516333 
         950      24.4897     0.992955   0.00108454 -0.000516115 
         950       24.705     0.992956    0.0010856 -0.000515932 
         950      24.9213     0.992961   0.00108592 -0.000515828 
         950      25.1385     0.992967   0.00108642 -0.000515837 
         950      25.3566     0.992972   0.00108837 -0.000515949 
         950      25.5756     0.992971    0.0010926 -0.000516077 
         950      25.7957      0.99296   0.00109817 -0.000516008 
         950      26.0166     0.992945   0.00109996 -0.000515337 
         950      26.2385     0.992943   0.00109816 -0.000514816 
         950      26.4613     0.992953   0.00110565 -0.000515919 
         950      26.6851     0.992963   0.00110617 -0.000516216 
         950      26.9098      0.99297    0.0011057 -0.000516102 
         950      27.1354     0.992973   0.00110692 -0.000515748 
         950      27.3621     0.992974    0.0011103 -0.000515309 
         950      27.5896     0.992973   0.00111489 -0.000515117 
         950      27.8181     0.992968   0.00111879 -0.000515878 
         950      28.0475     0.992958   0.00112017 -0.000517875 
         950      28.2779     0.992962   0.00112369 -0.000515404 
         950      28.5092     0.992963   0.00112446 -0.000514771 
         950      28.7414     0.992963   0.00112439 -0.000515114 
         950      28.9746     0.992962   0.00112513 -0.000515797 
         950      29.2088      0.99296   0.00112756 -0.000516398 
         950      29.4439      0.99296   0.00113167 -0.000516689 
         950      29.6799      0.99296   0.00113667  -0.00051661 
         950      29.9168     0.992963   0.00114137 -0.000516236 
         950      30.1548     0.992968   0.00114465 -0.000515727 
         950      30.3936     0.992974   0.00114607 -0.000515287 
         950      30.6334      0.99298   0.00114623 -0.000515103 
         950      30.8742     0.992983   0.00114672 -0.000515286 
         950      31.1158     0.992979    0.0011495  -0.00051581 
         950      31.3584     0.992965   0.00115508 -0.000516443 
         950       31.602     0.992946   0.00115942 -0.000516684 
         950      31.8465     0.992935   0.00114863 -0.000515698 
         950      32.0919     0.992962   0.00116314 -0.000516454 
         950      32.3383     0.992973   0.00116421 -0.000516492 
         950      32.5856     0.992974   0.00116274 -0.000516234 
         950       32.834     0.992972   0.00116379 -0.000516017 
         950      33.0831     0.992969   0.00116766 -0.000515968 
         950      33.3333      0.99297   0.00117282 -0.000516069 
         950      33.5843     0.992973   0.00117761 -0.000516229 
         950      33.8364     0.992978   0.00118105 -0.000516348 
         950      34.0894     0.992982   0.00118301 -0.000516361 
         950      34.3433     0.992985   0.00118399  -0.00051627 
         950      34.5981     0.992985   0.00118479 -0.000516146 
         950       34.854     0.992981   0.00118633 -0.000516099 
         950      35.1107     0.992973    0.0011899 -0.000516208 
         950      35.3684     0.992959   0.00119699 -0.000516419 
         950      35.6271     0.992952   0.00119899  -0.00051676 
         950      35.8867     0.992954   0.00120248 -0.000516781 
         950      36.1472     0.992962   0.00120544 -0.000516432 
         950      36.4086     0.992976   0.00120694 -0.000515907 
         950      36.6711     0.992992   0.00120733 -0.000515486 
         950      36.9344     0.993008   0.00120808 -0.000515402 
         950      37.1987     0.993013   0.00121104 -0.000515743 
         950      37.4639        0.993   0.00121682 -0.000516397 
         950      37.7301     0.992965   0.00122197 -0.000517066 
         950      37.9972     0.992918   0.00121458 -0.000517356 
         950      38.2652     0.992929   0.00122609 -0.000517443 
         950      38.5342     0.992964    0.0012295  -0.00051749 
         950      38.8042     0.992996   0.00122864 -0.000517339 
         950      39.0751     0.993014   0.00122895 -0.000516979 
         950      39.3469     0.993017    0.0012319 -0.000516473 
         950      39.6197      0.99301   0.00123689 -0.000515922 
         950      39.8934     0.992996   0.00124256 -0.000515432 
         950       40.168     0.992982    0.0012476 -0.000515093 
         950      40.4436     0.992971   0.00125122 -0.000514963 
         950      40.7202     0.992965   0.00125327 -0.000515062 
         950      40.9977     0.992966   0.00125414  -0.00051537 
         950      41.2761     0.992973   0.00125462 -0.000515833 
         950      41.5554     0.992982   0.00125558 -0.000516367 
         950      41.8358     0.992992   0.00125776 -0.000516874 
         950       42.117        0.993    0.0012615 -0.000517255 
         950      42.3992     0.993002   0.00126668 -0.000517423 
         950      42.6823     0.992999   0.00127269  -0.00051732 
         950      42.9664     0.992991   0.00127857 -0.000516926 
         950      43.2514     0.992979   0.00128325 -0.000516269 
         950      43.5373     0.992967   0.00128587 -0.000515423 
         950      43.8243     0.992959   0.00128612 -0.000514506 
         950      44.1121     0.992958   0.00128455 -0.000513661 
         950      44.4009     0.992968   0.00128265 -0.000513023 
         950      44.6906     0.992988   0.00128272 -0.000512682 
         950      44.9813     0.993012   0.00128713 -0.000512611 
         950      45.2729     0.993028   0.00129699 -0.000512587 
         950      45.5654     0.993012   0.00130976  -0.00051208 
         950      45.8589     0.992933   0.00131509 -0.000510834 
         950      46.1534     0.992888   0.00127795 -0.000523267 
         950      46.4488      0.99291   0.00130465  -0.00050909 
         950      46.7451     0.992976   0.00132222 -0.000512582 
         950      47.0423     0.993002   0.00132829 -0.000514744 
         950      47.3406     0.993005   0.00132893 -0.000516049 
         950      47.6397     0.992998   0.00132794  -0.00051682 
         950      47.9398     0.992988   0.00132742 -0.000517267 
         950      48.2409     0.992978   0.00132831 -0.000517516 
         950      48.5428     0.992971   0.00133078 -0.000517631 
         950      48.8457     0.992967   0.00133454 -0.000517635 
         950      49.1496     0.992965   0.00133913 -0.000517529 
         950      49.4545     0.992965   0.00134403 -0.000517305 
         950      49.7602     0.992967   0.00134879 -0.000516956 
         950      50.0668     0.992969   0.00135311 -0.000516481 
         950      50.3744     0.992971   0.00135684 -0.000515893 
         950      50.6831     0.992973   0.00135997 -0.000515215 
         950      50.9926     0.992976   0.00136263 -0.000514487 
         950       51.303     0.992978   0.00136502 -0.000513753 
         950      51.6144     0.992981   0.00136735 -0.000513067 
         950      51.9268     0.992984   0.00136984 -0.000512478 
         950        52.24     0.992988   0.00137264 -0.000512031 
         950      52.5542     0.992992   0.00137582 -0.000511758 
         950      52.8694     0.992995   0.00137934 -0.000511672 
         950      53.1856     0.992997   0.00138311 -0.000511764 
         950      53.5026     0.992998   0.00138693 -0.000511998 
         950      53.8205     0.992997    0.0013906 -0.000512311 
         950      54.1396     0.992994   0.00139391  -0.00051262 
         950      54.4594      0.99299   0.00139675 -0.000512822 
         950      54.7802     0.992984   0.00139913 -0.000512814 
         950      55.1019     0.992979   0.00140123 -0.000512504 
         950      55.4247     0.992976   0.00140343 -0.000511842 
         950      55.7483     0.992977   0.00140622 -0.000510849 
         950      56.0729     0.992983   0.00141019 -0.000509663 
         950      56.3984     0.992997   0.00141579 -0.000508588 
         950       56.725     0.993017   0.00142305 -0.000508163 
         950      57.0523     0.993039    0.0014311 -0.000509238 
         950      57.3807     0.993054    0.0014376 -0.000513063 
         950      57.7099     0.993022   0.00144048 -0.000516125 
         950      58.0403     0.992923     0.001437 -0.000513186 
         950      58.3714     0.992845   0.00142755 -0.000508858 
         950      58.7035     0.992957   0.00143935 -0.000503458 
         950      59.0367     0.993045   0.00146245 -0.000504453 
         950      59.3707     0.992923   0.00144779  -0.00051007 
         950      59.7056     0.992938   0.00144341  -0.00051347 
         950      60.0414     0.993004   0.00144563 -0.000515303 
         950      60.3784      0.99307   0.00145161 -0.000516076 
         950      60.7161      0.99311   0.00145923  -0.00051617 
         950      61.0548     0.993115   0.00146704 -0.000515865 
         950      61.3944     0.993088    0.0014741 -0.000515357 
         950      61.7351     0.993038    0.0014799 -0.000514777 
         950      62.0767     0.992978   0.00148427 -0.000514209 
         950      62.4191      0.99292    0.0014873 -0.000513695 
         950      62.7625     0.992874   0.00148926 -0.000513255 
         950       63.107     0.992847   0.00149051 -0.000512891 
         950      63.4523     0.992843   0.00149148 -0.000512595 
         950      63.7985     0.992862   0.00149257 -0.000512359 
         950      64.1458       0.9929   0.00149413 -0.000512173 
         950      64.4939     0.992953   0.00149645 -0.000512032 
         950       64.843     0.993012    0.0014997 -0.000511935 
         950      65.1929      0.99307   0.00150396 -0.000511889 
         950       65.544     0.993119   0.00150916 -0.000511901 
         950      65.8959     0.993152   0.00151515 -0.000511985 
         950      66.2487     0.993164   0.00152169 -0.000512151 
         950      66.6025     0.993154   0.00152845 -0.000512409 
         950      66.9573     0.993121    0.0015351 -0.000512762 
         950       67.313      0.99307   0.00154127 -0.000513206 
         950      67.6695     0.993006   0.00154666 -0.000513722 
         950      68.0271     0.992937   0.00155101 -0.000514281 
         950      68.3857     0.992873   0.00155418 -0.000514837 
         950      68.7451     0.992824   0.00155619 -0.000515331 
         950      69.1055     0.992799   0.00155719  -0.00051569 
         950      69.4669     0.992802   0.00155751 -0.000515832 
         950      69.8291     0.992839   0.00155765 -0.000515672 
         950      70.1923     0.992905   0.00155823 -0.000515132 
         950      70.5564     0.992995   0.00155996 -0.000514151 
         950      70.9217     0.993095   0.00156354 -0.000512701 
         950      71.2877     0.993187    0.0015695  -0.00051081 
         950      71.6546     0.993252    0.0015781 -0.000508585 
         950      72.0225     0.993268   0.00158901 -0.000506241 
         950      72.3915     0.993219   0.00160111  -0.00050414 
         950      72.7613     0.993102   0.00161205 -0.000502834 
         950       73.132     0.992935   0.00161783 -0.000503112 
         950      73.5036     0.992887   0.00160464 -0.000509182 
         950      73.8764     0.993134   0.00158719 -0.000512162 
         950      74.2499     0.993992   0.00157522 -0.000507352 
         950      74.6244     0.996007   0.00157721 -0.000490583 
         950           75            1   0.00160405   -0.0004563 
