Variables = x, y, u, v, p

Zone, I=400, F=POINT
         450            0            0            0  -0.00510901 
         450     0.000471  0.000171218  2.78657e-10  -0.00510901 
         450     0.001884  0.000684883  1.27484e-09  -0.00510901 
         450     0.004239   0.00154103  3.62669e-09  -0.00510901 
         450     0.007537   0.00274006  8.78356e-09  -0.00510901 
         450     0.011776   0.00428134  1.92014e-08  -0.00510901 
         450     0.016958   0.00616567  3.82346e-08  -0.00510901 
         450     0.023081   0.00839245  6.97887e-08  -0.00510901 
         450      0.03015    0.0109636  1.18201e-07  -0.00510901 
         450     0.038157    0.0138764  1.88334e-07  -0.00510901 
         450     0.047107    0.0171329   2.8611e-07    -0.005109 
         450     0.056999    0.0207328  4.18281e-07    -0.005109 
         450     0.067837    0.0246779  5.91951e-07    -0.005109 
         450     0.079614    0.0289657  8.14584e-07  -0.00510899 
         450     0.092332    0.0335973  1.09513e-06  -0.00510899 
         450     0.105992    0.0385733  1.44258e-06  -0.00510899 
         450       0.1206    0.0438962  1.86706e-06  -0.00510898 
         450     0.136145    0.0495621   2.3788e-06  -0.00510898 
         450     0.152631    0.0555728  2.98913e-06  -0.00510898 
         450     0.170067    0.0619319  3.71035e-06  -0.00510897 
         450     0.188438    0.0686341   4.5544e-06  -0.00510897 
         450     0.207751    0.0756822  5.53476e-06  -0.00510896 
         450     0.228006    0.0830764  6.66534e-06  -0.00510896 
         450     0.249212    0.0908201  7.96124e-06  -0.00510895 
         450     0.271351    0.0989069  9.43649e-06  -0.00510895 
         450     0.294433      0.10734  1.11076e-05  -0.00510894 
         450     0.318456      0.11612  1.29907e-05  -0.00510893 
         450     0.343432     0.125249  1.51039e-05  -0.00510893 
         450     0.369339     0.134721   1.7463e-05  -0.00510892 
         450     0.396189     0.144538   2.0087e-05  -0.00510891 
         450     0.423981       0.1547  2.29947e-05  -0.00510891 
         450     0.452726      0.16521  2.62065e-05   -0.0051089 
         450     0.482403     0.176059  2.97398e-05  -0.00510889 
         450     0.513021      0.18725  3.36156e-05  -0.00510888 
         450     0.544594     0.198785  3.78563e-05  -0.00510887 
         450     0.577096     0.210654  4.24795e-05  -0.00510887 
         450     0.610541     0.222858  4.75081e-05  -0.00510886 
         450     0.644927     0.235395  5.29626e-05  -0.00510885 
         450      0.68027     0.248268  5.88684e-05  -0.00510884 
         450     0.716541      0.26146  6.52419e-05  -0.00510883 
         450     0.753754     0.274975  7.21067e-05  -0.00510882 
         450     0.791909     0.288805  7.94839e-05  -0.00510881 
         450     0.831022     0.302951  8.73982e-05   -0.0051088 
         450     0.871061     0.317396  9.58639e-05  -0.00510879 
         450     0.912043     0.332137  0.000104905  -0.00510878 
         450     0.953966     0.347165   0.00011454  -0.00510876 
         450     0.996849     0.362478  0.000124794  -0.00510875 
         450      1.04066     0.378053  0.000135673  -0.00510874 
         450      1.08541     0.393884  0.000147199  -0.00510873 
         450      1.13112     0.409964  0.000159392  -0.00510871 
         450      1.17775     0.426268  0.000172255   -0.0051087 
         450      1.22533     0.442785  0.000185803  -0.00510868 
         450      1.27384     0.459498  0.000200047  -0.00510867 
         450      1.32333     0.476396  0.000214995  -0.00510865 
         450      1.37373     0.493445  0.000230648  -0.00510864 
         450      1.42507      0.51063   0.00024699  -0.00510862 
         450      1.47736     0.527928  0.000264035   -0.0051086 
         450      1.53061     0.545322  0.000281787  -0.00510858 
         450      1.58478     0.562771   0.00030022  -0.00510856 
         450      1.63989     0.580254   0.00031932  -0.00510854 
         450      1.69595     0.597741  0.000339063  -0.00510852 
         450      1.75297     0.615208  0.000359428   -0.0051085 
         450      1.81091      0.63261  0.000380371  -0.00510848 
         450      1.86979      0.64992  0.000401866  -0.00510845 
         450      1.92964     0.667109  0.000423887  -0.00510843 
         450       1.9904     0.684128  0.000446373   -0.0051084 
         450      2.05211     0.700949  0.000469284  -0.00510837 
         450      2.11476     0.717534  0.000492559  -0.00510834 
         450      2.17838     0.733852  0.000516142  -0.00510831 
         450      2.24291     0.749854  0.000539942  -0.00510828 
         450      2.30839      0.76551  0.000563891  -0.00510824 
         450       2.3748     0.780785  0.000587915   -0.0051082 
         450      2.44219     0.795648  0.000611953  -0.00510816 
         450      2.51049     0.810056   0.00063592  -0.00510811 
         450      2.57974     0.823983  0.000659758  -0.00510805 
         450      2.64993       0.8374  0.000683376  -0.00510798 
         450      2.72108     0.850286  0.000706624  -0.00510791 
         450      2.79315     0.862607  0.000729554  -0.00510783 
         450      2.86617     0.874348  0.000751941   -0.0051078 
         450      2.94012     0.885493  0.000773666  -0.00510779 
         450      3.01505     0.896033   0.00079478  -0.00510777 
         450      3.09089     0.905951  0.000815235  -0.00510773 
         450      3.16767     0.915247  0.000834972  -0.00510768 
         450      3.24542     0.923923  0.000853807  -0.00510769 
         450      3.32409     0.931977  0.000871688  -0.00510766 
         450       3.4037      0.93942  0.000888654  -0.00510761 
         450      3.48425     0.946265  0.000904698  -0.00510755 
         450      3.56577     0.952529  0.000919797   -0.0051075 
         450       3.6482     0.958227  0.000933889  -0.00510745 
         450      3.73158     0.963382  0.000946935   -0.0051074 
         450       3.8159     0.968022  0.000958939  -0.00510735 
         450      3.90119     0.972174  0.000969986   -0.0051073 
         450       3.9874     0.975866  0.000980193  -0.00510724 
         450      4.07454     0.979129  0.000989579  -0.00510717 
         450      4.16263     0.981994  0.000997818  -0.00510709 
         450      4.25169     0.984497   0.00100539  -0.00510707 
         450      4.34166     0.986664    0.0010121  -0.00510701 
         450      4.43258     0.988531   0.00101819  -0.00510695 
         450      4.52447     0.990129   0.00102365  -0.00510689 
         450      4.61726     0.991484   0.00102848  -0.00510685 
         450        4.711     0.992625   0.00103268  -0.00510684 
         450      4.80569      0.99358   0.00103634  -0.00510686 
         450      4.90135     0.994373   0.00103958  -0.00510688 
         450      4.99791     0.995027   0.00104255  -0.00510683 
         450      5.09542     0.995562   0.00104509  -0.00510675 
         450      5.19387     0.995995   0.00104715  -0.00510672 
         450       5.2933     0.996342   0.00104908  -0.00510666 
         450      5.39364     0.996618    0.0010509  -0.00510659 
         450      5.49491     0.996837   0.00105248  -0.00510652 
         450      5.59713     0.997009   0.00105379  -0.00510646 
         450      5.70033     0.997142   0.00105529  -0.00510641 
         450      5.80443     0.997245   0.00105617  -0.00510633 
         450      5.90948     0.997322   0.00105744  -0.00510626 
         450      6.01551     0.997381   0.00105858  -0.00510619 
         450      6.12244     0.997425   0.00105952  -0.00510613 
         450      6.23031     0.997458    0.0010604  -0.00510605 
         450      6.33912     0.997483   0.00106134  -0.00510597 
         450      6.44892       0.9975   0.00106236  -0.00510588 
         450      6.55962     0.997512   0.00106343   -0.0051058 
         450      6.67126      0.99752   0.00106447  -0.00510572 
         450      6.78384     0.997527   0.00106542  -0.00510566 
         450      6.89741     0.997531   0.00106628  -0.00510561 
         450      7.01187     0.997535    0.0010671  -0.00510558 
         450      7.12728     0.997537   0.00106801  -0.00510556 
         450      7.24363     0.997538   0.00106906  -0.00510553 
         450      7.36097     0.997539   0.00107023  -0.00510549 
         450       7.4792      0.99754   0.00107136  -0.00510544 
         450      7.59838     0.997542   0.00107216   -0.0051054 
         450      7.71854      0.99754   0.00107257  -0.00510545 
         450       7.8396      0.99754   0.00107337  -0.00510547 
         450      7.96161     0.997541   0.00107389   -0.0051053 
         450      8.08455     0.997544    0.0010739  -0.00510518 
         450      8.20849     0.997542   0.00107612  -0.00510491 
         450      8.33332      0.99754   0.00107773  -0.00510478 
         450      8.45909     0.997541   0.00107893  -0.00510471 
         450       8.5858     0.997543   0.00107992  -0.00510467 
         450      8.71351     0.997545   0.00108085  -0.00510463 
         450       8.8421     0.997546    0.0010818  -0.00510459 
         450      8.97164     0.997545   0.00108281  -0.00510455 
         450      9.10212     0.997544   0.00108386   -0.0051045 
         450       9.2336     0.997543   0.00108492  -0.00510447 
         450      9.36596     0.997542   0.00108596  -0.00510444 
         450      9.49927     0.997542   0.00108698  -0.00510441 
         450      9.63352     0.997543   0.00108798  -0.00510438 
         450      9.76877     0.997544   0.00108902  -0.00510435 
         450       9.9049     0.997545   0.00109013  -0.00510431 
         450       10.042     0.997546   0.00109134  -0.00510427 
         450      10.1801     0.997545   0.00109262  -0.00510421 
         450       10.319     0.997545   0.00109389  -0.00510416 
         450      10.4589     0.997546   0.00109505  -0.00510412 
         450      10.5998     0.997546   0.00109601  -0.00510408 
         450      10.7416     0.997545   0.00109697  -0.00510401 
         450      10.8843     0.997547   0.00109827  -0.00510392 
         450       11.028     0.997548   0.00109955  -0.00510385 
         450      11.1726     0.997547    0.0011007   -0.0051038 
         450      11.3182     0.997547   0.00110178  -0.00510377 
         450      11.4647     0.997547   0.00110287  -0.00510374 
         450      11.6122     0.997547   0.00110405  -0.00510372 
         450      11.7605     0.997548    0.0011053  -0.00510369 
         450      11.9099     0.997548   0.00110659  -0.00510366 
         450      12.0602     0.997549   0.00110784  -0.00510364 
         450      12.2114     0.997549   0.00110903  -0.00510361 
         450      12.3636     0.997549   0.00111016   -0.0051036 
         450      12.5167     0.997548   0.00111128  -0.00510359 
         450      12.6707     0.997548   0.00111248  -0.00510357 
         450      12.8257     0.997548   0.00111383  -0.00510351 
         450      12.9817     0.997549   0.00111534  -0.00510335 
         450      13.1386     0.997549   0.00111675  -0.00510324 
         450      13.2964      0.99755   0.00111793  -0.00510324 
         450      13.4551     0.997551   0.00111922  -0.00510316 
         450      13.6149      0.99755   0.00112069  -0.00510308 
         450      13.7755      0.99755   0.00112204  -0.00510286 
         450      13.9371     0.997555   0.00112277  -0.00510282 
         450      14.0996     0.997551   0.00112403  -0.00510306 
         450      14.2631     0.997547   0.00112526  -0.00510274 
         450      14.4275     0.997552   0.00112623  -0.00510231 
         450      14.5928     0.997554   0.00112755  -0.00510257 
         450      14.7592     0.997553   0.00112958  -0.00510263 
         450      14.9264     0.997552   0.00113156  -0.00510256 
         450      15.0946     0.997551   0.00113313  -0.00510244 
         450      15.2637     0.997552   0.00113425  -0.00510233 
         450      15.4338     0.997554   0.00113508  -0.00510226 
         450      15.6048     0.997555   0.00113588  -0.00510224 
         450      15.7767     0.997556   0.00113687  -0.00510226 
         450      15.9496     0.997556   0.00113818  -0.00510229 
         450      16.1235     0.997554    0.0011398   -0.0051023 
         450      16.2982     0.997552    0.0011416  -0.00510225 
         450      16.4739      0.99755   0.00114339  -0.00510212 
         450      16.6506     0.997551   0.00114495  -0.00510192 
         450      16.8282     0.997553   0.00114619  -0.00510169 
         450      17.0068     0.997557   0.00114717  -0.00510147 
         450      17.1862     0.997559   0.00114816  -0.00510134 
         450      17.3667     0.997558   0.00114956  -0.00510133 
         450      17.5481     0.997552   0.00115162  -0.00510144 
         450      17.7304     0.997546   0.00115392  -0.00510153 
         450      17.9136     0.997559   0.00115447  -0.00510124 
         450      18.0979     0.997552   0.00115673  -0.00510202 
         450       18.283     0.997562   0.00115633  -0.00510193 
         450      18.4691     0.997567   0.00115678  -0.00510157 
         450      18.6561     0.997556   0.00115916  -0.00510135 
         450      18.8441     0.997544   0.00116223  -0.00510121 
         450       19.033     0.997547   0.00116383  -0.00510129 
         450      19.2228     0.997561   0.00116519  -0.00510113 
         450      19.4136     0.997565   0.00116704  -0.00510088 
         450      19.6054     0.997564     0.001168  -0.00510105 
         450       19.798     0.997561   0.00116905  -0.00510125 
         450      19.9917     0.997558   0.00117055  -0.00510133 
         450      20.1862     0.997556   0.00117244  -0.00510127 
         450      20.3818     0.997557    0.0011745  -0.00510112 
         450      20.5782     0.997558   0.00117651  -0.00510098 
         450      20.7756      0.99756   0.00117835   -0.0051009 
         450       20.974      0.99756   0.00117998  -0.00510086 
         450      21.1732      0.99756   0.00118135  -0.00510068 
         450      21.3734     0.997566   0.00118223  -0.00509997 
         450      21.5745      0.99757   0.00118368  -0.00509901 
         450      21.7767     0.997562    0.0011859  -0.00509878 
         450      21.9797     0.997557   0.00118796  -0.00509869 
         450      22.1837     0.997554   0.00119011  -0.00509866 
         450      22.3886     0.997551   0.00119232  -0.00509868 
         450      22.5945     0.997551   0.00119437  -0.00509874 
         450      22.8013     0.997556   0.00119593  -0.00509883 
         450      23.0091     0.997567   0.00119687  -0.00509892 
         450      23.2177     0.997581   0.00119785  -0.00509889 
         450      23.4274     0.997581   0.00120115   -0.0050985 
         450       23.638     0.997562   0.00120361   -0.0050984 
         450      23.8495     0.997562   0.00120279  -0.00509847 
         450       24.062     0.997561   0.00120483  -0.00509777 
         450      24.2754     0.997561   0.00120713  -0.00509695 
         450      24.4897     0.997561   0.00120898  -0.00509654 
         450       24.705     0.997562   0.00121083  -0.00509706 
         450      24.9213     0.997562   0.00121374  -0.00509911 
         450      25.1385     0.997566   0.00121424  -0.00509784 
         450      25.3566     0.997567   0.00121512  -0.00509759 
         450      25.5756     0.997567    0.0012163  -0.00509799 
         450      25.7957     0.997565   0.00121769  -0.00509857 
         450      26.0166     0.997562   0.00121929  -0.00509904 
         450      26.2385     0.997561   0.00122115  -0.00509927 
         450      26.4613     0.997561   0.00122325  -0.00509923 
         450      26.6851     0.997563   0.00122553  -0.00509897 
         450      26.9098     0.997567   0.00122786  -0.00509861 
         450      27.1354     0.997571   0.00123008  -0.00509826 
         450      27.3621     0.997574   0.00123203  -0.00509802 
         450      27.5896     0.997576   0.00123363  -0.00509795 
         450      27.8181     0.997576   0.00123491  -0.00509805 
         450      28.0475     0.997573   0.00123604  -0.00509826 
         450      28.2779      0.99757   0.00123734  -0.00509847 
         450      28.5092     0.997567   0.00123917  -0.00509855 
         450      28.7414     0.997567    0.0012418  -0.00509841 
         450      28.9746      0.99757   0.00124508  -0.00509808 
         450      29.2088     0.997574   0.00124804   -0.0050978 
         450      29.4439     0.997569   0.00124816  -0.00509822 
         450      29.6799     0.997584   0.00125014  -0.00509801 
         450      29.9168     0.997588   0.00125295  -0.00509761 
         450      30.1548     0.997573    0.0012538   -0.0050978 
         450      30.3936     0.997559   0.00125463  -0.00509803 
         450      30.6334     0.997555    0.0012561  -0.00509804 
         450      30.8742     0.997561   0.00125819  -0.00509779 
         450      31.1158     0.997574   0.00126057  -0.00509736 
         450      31.3584     0.997587   0.00126289  -0.00509689 
         450       31.602     0.997595   0.00126497   -0.0050965 
         450      31.8465     0.997595   0.00126681  -0.00509628 
         450      32.0919     0.997586   0.00126858  -0.00509628 
         450      32.3383     0.997571   0.00127047  -0.00509645 
         450      32.5856     0.997556   0.00127255  -0.00509672 
         450       32.834     0.997549   0.00127463  -0.00509697 
         450      33.0831      0.99756   0.00127618  -0.00509712 
         450      33.3333     0.997598   0.00127644  -0.00509717 
         450      33.5843     0.997594    0.0012799  -0.00509752 
         450      33.8364     0.997584   0.00128336  -0.00509748 
         450      34.0894     0.997583   0.00128601  -0.00509713 
         450      34.3433     0.997583   0.00128835  -0.00509671 
         450      34.5981      0.99758   0.00129048  -0.00509639 
         450       34.854     0.997573   0.00129241  -0.00509629 
         450      35.1107     0.997566   0.00129423  -0.00509645 
         450      35.3684      0.99756   0.00129619  -0.00509679 
         450      35.6271     0.997562   0.00129832   -0.0050971 
         450      35.8867     0.997587   0.00129969  -0.00509697 
         450      36.1472     0.997598     0.001301  -0.00509655 
         450      36.4086     0.997589    0.0013027  -0.00509626 
         450      36.6711     0.997579   0.00130445  -0.00509596 
         450      36.9344      0.99757   0.00130649  -0.00509566 
         450      37.1987     0.997565   0.00130883  -0.00509538 
         450      37.4639     0.997565   0.00131139  -0.00509513 
         450      37.7301     0.997568   0.00131402   -0.0050949 
         450      37.9972     0.997575   0.00131661  -0.00509471 
         450      38.2652     0.997583   0.00131906  -0.00509457 
         450      38.5342     0.997589   0.00132133  -0.00509445 
         450      38.8042     0.997593   0.00132341  -0.00509437 
         450      39.0751     0.997593   0.00132535   -0.0050943 
         450      39.3469     0.997588   0.00132721  -0.00509425 
         450      39.6197     0.997581   0.00132906  -0.00509419 
         450      39.8934     0.997572   0.00133096  -0.00509412 
         450       40.168     0.997565   0.00133295  -0.00509402 
         450      40.4436     0.997562   0.00133503   -0.0050939 
         450      40.7202     0.997565    0.0013372  -0.00509376 
         450      40.9977     0.997573   0.00133939   -0.0050936 
         450      41.2761     0.997585   0.00134157  -0.00509343 
         450      41.5554     0.997598   0.00134366  -0.00509328 
         450      41.8358     0.997605   0.00134564  -0.00509317 
         450       42.117     0.997603   0.00134754  -0.00509313 
         450      42.3992      0.99759   0.00134946  -0.00509319 
         450      42.6823      0.99757   0.00135159  -0.00509337 
         450      42.9664     0.997565   0.00135419   -0.0050937 
         450      43.2514     0.997621    0.0013576  -0.00509417 
         450      43.5373     0.997602    0.0013587  -0.00509619 
         450      43.8243     0.997558   0.00136164  -0.00509563 
         450      44.1121      0.99756   0.00136365  -0.00509493 
         450      44.4009     0.997576   0.00136583  -0.00509426 
         450      44.6906     0.997592   0.00136842  -0.00509372 
         450      44.9813       0.9976    0.0013713  -0.00509332 
         450      45.2729       0.9976   0.00137418  -0.00509308 
         450      45.5654     0.997595   0.00137684  -0.00509295 
         450      45.8589     0.997589   0.00137916  -0.00509289 
         450      46.1534     0.997582   0.00138114  -0.00509288 
         450      46.4488     0.997578   0.00138292  -0.00509287 
         450      46.7451     0.997577   0.00138469  -0.00509285 
         450      47.0423     0.997578   0.00138664  -0.00509282 
         450      47.3406     0.997581   0.00138892  -0.00509276 
         450      47.6397     0.997583   0.00139158   -0.0050927 
         450      47.9398     0.997585   0.00139454  -0.00509264 
         450      48.2409     0.997586   0.00139764  -0.00509261 
         450      48.5428     0.997585   0.00140063   -0.0050926 
         450      48.8457     0.997583   0.00140327  -0.00509261 
         450      49.1496     0.997582   0.00140537  -0.00509263 
         450      49.4545     0.997582   0.00140689  -0.00509263 
         450      49.7602     0.997583   0.00140799  -0.00509257 
         450      50.0668     0.997586   0.00140904  -0.00509242 
         450      50.3744      0.99759   0.00141059  -0.00509213 
         450      50.6831     0.997591   0.00141312   -0.0050917 
         450      50.9926     0.997588   0.00141677  -0.00509118 
         450       51.303      0.99758    0.0014207  -0.00509069 
         450      51.6144     0.997572   0.00142227  -0.00509051 
         450      51.9268     0.997563   0.00142314  -0.00509058 
         450        52.24     0.997559   0.00142809  -0.00509126 
         450      52.5542     0.997568    0.0014303  -0.00509248 
         450      52.8694      0.99758   0.00143191  -0.00509352 
         450      53.1856     0.997589   0.00143383    -0.005094 
         450      53.5026     0.997594   0.00143626  -0.00509387 
         450      53.8205     0.997595   0.00143905  -0.00509321 
         450      54.1396     0.997595   0.00144195  -0.00509222 
         450      54.4594     0.997594   0.00144476  -0.00509112 
         450      54.7802     0.997593   0.00144738  -0.00509012 
         450      55.1019     0.997593   0.00144982  -0.00508939 
         450      55.4247     0.997593   0.00145217  -0.00508902 
         450      55.7483     0.997592   0.00145455  -0.00508904 
         450      56.0729     0.997591   0.00145706   -0.0050894 
         450      56.3984     0.997589   0.00145975  -0.00509003 
         450       56.725     0.997587   0.00146257  -0.00509077 
         450      57.0523     0.997585   0.00146542  -0.00509151 
         450      57.3807     0.997583   0.00146811   -0.0050921 
         450      57.7099     0.997583    0.0014705  -0.00509247 
         450      58.0403     0.997585   0.00147249  -0.00509256 
         450      58.3714      0.99759   0.00147415  -0.00509241 
         450      58.7035     0.997595   0.00147572  -0.00509211 
         450      59.0367     0.997598   0.00147767  -0.00509179 
         450      59.3707     0.997598   0.00148059  -0.00509163 
         450      59.7056     0.997591     0.001485  -0.00509174 
         450      60.0414     0.997576   0.00149101  -0.00509211 
         450      60.3784     0.997559    0.0014977   -0.0050925 
         450      60.7161     0.997551   0.00150223  -0.00509227 
         450      61.0548     0.997564   0.00149826  -0.00508924 
         450      61.3944     0.997635   0.00149169  -0.00508721 
         450      61.7351     0.997667   0.00150556  -0.00509438 
         450      62.0767     0.997655   0.00151407  -0.00509886 
         450      62.4191     0.997634   0.00151549  -0.00509962 
         450      62.7625     0.997608   0.00151435  -0.00509813 
         450       63.107      0.99758   0.00151327  -0.00509547 
         450      63.4523     0.997555   0.00151352   -0.0050924 
         450      63.7985     0.997539   0.00151544   -0.0050894 
         450      64.1458     0.997535   0.00151879  -0.00508673 
         450      64.4939      0.99754   0.00152323   -0.0050851 
         450       64.843     0.997556    0.0015281   -0.0050848 
         450      65.1929     0.997579   0.00153273  -0.00508547 
         450       65.544     0.997606   0.00153668  -0.00508672 
         450      65.8959     0.997632   0.00153976  -0.00508819 
         450      66.2487     0.997652   0.00154196  -0.00508958 
         450      66.6025     0.997663   0.00154349  -0.00509065 
         450      66.9573     0.997663   0.00154466  -0.00509128 
         450       67.313     0.997651   0.00154583  -0.00509144 
         450      67.6695     0.997628   0.00154733  -0.00509118 
         450      68.0271     0.997597   0.00154941  -0.00509062 
         450      68.3857     0.997564    0.0015522  -0.00508993 
         450      68.7451     0.997534   0.00155565   -0.0050893 
         450      69.1055     0.997511   0.00155959  -0.00508887 
         450      69.4669     0.997502   0.00156375  -0.00508878 
         450      69.8291     0.997509   0.00156779  -0.00508908 
         450      70.1923     0.997533   0.00157137  -0.00508971 
         450      70.5564     0.997571   0.00157429  -0.00509056 
         450      70.9217     0.997619   0.00157647   -0.0050914 
         450      71.2877     0.997665   0.00157809  -0.00509195 
         450      71.6546     0.997698   0.00157954  -0.00509195 
         450      72.0225     0.997706   0.00158138  -0.00509118 
         450      72.3915      0.99768   0.00158414   -0.0050896 
         450      72.7613     0.997618   0.00158806  -0.00508753 
         450       73.132     0.997536   0.00159256  -0.00508576 
         450      73.5036     0.997473   0.00159557  -0.00508589 
         450      73.8764     0.997509   0.00159245  -0.00509051 
         450      74.2499     0.997772   0.00158824  -0.00509567 
         450      74.6244      0.99849   0.00160055  -0.00509222 
         450           75            1   0.00160405  -0.00509739 
