Variables = x, y, u, v, p

Zone, I=600, F=POINT
         400            0            0            0 -4.58202e-05 
         400     0.000417  0.000161166   2.2817e-11 -4.58201e-05 
         400     0.001671  0.000645823  3.66408e-10 -4.58198e-05 
         400     0.003762   0.00145397  1.85718e-09 -4.58193e-05 
         400     0.006687   0.00258445  5.86786e-09 -4.58185e-05 
         400      0.01045   0.00403881  1.43301e-08 -4.58175e-05 
         400     0.015048    0.0058159   2.9715e-08 -4.58163e-05 
         400     0.020484   0.00791686  5.50616e-08 -4.58149e-05 
         400     0.026753    0.0103398  9.39217e-08 -4.58132e-05 
         400     0.033862    0.0130873  1.50469e-07 -4.58114e-05 
         400     0.041803    0.0161565  2.29318e-07 -4.58093e-05 
         400     0.050579    0.0195483  3.35711e-07  -4.5807e-05 
         400     0.060198     0.023266  4.75544e-07 -4.58044e-05 
         400     0.070646     0.027304  6.54943e-07 -4.58017e-05 
         400     0.081937    0.0316679  8.81027e-07 -4.57987e-05 
         400     0.094057    0.0363521  1.16095e-06 -4.57956e-05 
         400     0.107021    0.0413625  1.50303e-06 -4.57921e-05 
         400     0.120813    0.0466927  1.91538e-06 -4.57885e-05 
         400      0.13545    0.0523494   2.4076e-06 -4.57847e-05 
         400     0.150914    0.0583256  2.98869e-06 -4.57806e-05 
         400     0.167213    0.0646241  3.66907e-06 -4.57763e-05 
         400     0.184359    0.0712496  4.46002e-06 -4.57718e-05 
         400      0.20233    0.0781933  5.37176e-06 -4.57671e-05 
         400     0.221149     0.085464  6.41728e-06 -4.57622e-05 
         400     0.240792    0.0930522  7.60756e-06  -4.5757e-05 
         400     0.261284     0.100967  8.95698e-06 -4.57516e-05 
         400     0.282599     0.109198  1.04772e-05  -4.5746e-05 
         400     0.304763     0.117756   1.2184e-05 -4.57402e-05 
         400      0.32775     0.126628  1.40897e-05 -4.57341e-05 
         400     0.351587     0.135826  1.62116e-05 -4.57279e-05 
         400     0.376246     0.145337  1.85624e-05 -4.57213e-05 
         400      0.40174     0.155166  2.11592e-05 -4.57146e-05 
         400     0.428086     0.165318    2.402e-05 -4.57077e-05 
         400     0.455252     0.175779   2.7158e-05 -4.57005e-05 
         400     0.483271      0.18656  3.05943e-05  -4.5693e-05 
         400     0.512109     0.197647  3.43421e-05 -4.56854e-05 
         400     0.541801     0.209051  3.84238e-05 -4.56775e-05 
         400     0.572311     0.220756  4.28524e-05 -4.56694e-05 
         400     0.603676     0.232773  4.76517e-05  -4.5661e-05 
         400     0.635857     0.245083  5.28341e-05 -4.56523e-05 
         400     0.668875     0.257693  5.84213e-05 -4.56434e-05 
         400     0.702748     0.270603  6.44353e-05 -4.56343e-05 
         400     0.737438     0.283796  7.08881e-05 -4.56249e-05 
         400     0.772984      0.29728  7.78054e-05 -4.56152e-05 
         400     0.809345     0.311035  8.51974e-05 -4.56052e-05 
         400     0.846564      0.32507  9.30908e-05  -4.5595e-05 
         400     0.884597     0.339362  0.000101494 -4.55844e-05 
         400     0.923489     0.353919  0.000110433 -4.55735e-05 
         400     0.963194     0.368715  0.000119914 -4.55623e-05 
         400      1.00376     0.383759  0.000129964 -4.55508e-05 
         400      1.04514     0.399021  0.000140584 -4.55389e-05 
         400      1.08735     0.414499  0.000151794 -4.55266e-05 
         400      1.13042      0.43019  0.000163613  -4.5514e-05 
         400      1.17431      0.44606  0.000176035  -4.5501e-05 
         400      1.21905     0.462114  0.000189084 -4.54875e-05 
         400      1.26461     0.478316   0.00020275 -4.54736e-05 
         400      1.31103     0.494668  0.000217054 -4.54593e-05 
         400      1.35826     0.511132  0.000231978 -4.54444e-05 
         400      1.40635     0.527707   0.00024754 -4.54289e-05 
         400      1.45525     0.544351  0.000263715 -4.54129e-05 
         400      1.50498     0.561054  0.000280503 -4.53965e-05 
         400      1.55558     0.577799  0.000297906 -4.53798e-05 
         400      1.60699     0.594541  0.000315888 -4.53621e-05 
         400      1.65927     0.611276  0.000334449 -4.53434e-05 
         400      1.71235     0.627953  0.000353542 -4.53241e-05 
         400      1.76629     0.644566  0.000373162  -4.5304e-05 
         400      1.82104     0.661063  0.000393254 -4.52833e-05 
         400      1.87666     0.677435  0.000413805 -4.52618e-05 
         400      1.93309      0.69363   0.00043475 -4.52396e-05 
         400      1.99034     0.709627  0.000456054 -4.52166e-05 
         400      2.04847     0.725403  0.000477681 -4.51927e-05 
         400       2.1074     0.740907  0.000499552 -4.51679e-05 
         400      2.16721     0.756126  0.000521633  -4.5142e-05 
         400      2.22781      0.77101  0.000543834  -4.5115e-05 
         400      2.28928     0.785546  0.000566119 -4.50869e-05 
         400      2.35156     0.799687   0.00058839 -4.50577e-05 
         400       2.4147     0.813421  0.000610604 -4.50272e-05 
         400      2.47865     0.826705  0.000632661 -4.49956e-05 
         400      2.54347      0.83953  0.000654513 -4.49628e-05 
         400      2.60909     0.851857  0.000676062 -4.49289e-05 
         400      2.67554     0.863674  0.000697246 -4.48939e-05 
         400      2.74287      0.87497  0.000718008 -4.48578e-05 
         400        2.811     0.885716  0.000738252 -4.48206e-05 
         400         2.88     0.895914  0.000757937 -4.47824e-05 
         400      2.94979     0.905543  0.000776978 -4.47431e-05 
         400      3.02047      0.91461   0.00079534 -4.47027e-05 
         400      3.09194     0.923103  0.000812948 -4.46611e-05 
         400      3.16429     0.931033  0.000829779 -4.46182e-05 
         400      3.23743     0.938398  0.000845771  -4.4574e-05 
         400       3.3114      0.94521  0.000860904 -4.45284e-05 
         400      3.38626     0.951486   0.00087516 -4.44816e-05 
         400      3.46191     0.957233  0.000888505 -4.44339e-05 
         400      3.53844     0.962476  0.000900948 -4.43858e-05 
         400      3.61576     0.967229  0.000912477 -4.43385e-05 
         400      3.69396     0.971522  0.000923121 -4.42935e-05 
         400      3.77295     0.975372   0.00093288 -4.42495e-05 
         400      3.85283     0.978812  0.000941769 -4.41957e-05 
         400      3.93349     0.981863  0.000949836 -4.41405e-05 
         400      4.01504     0.984557  0.000957114 -4.40848e-05 
         400      4.09737     0.986919  0.000963627  -4.4029e-05 
         400      4.18054     0.988979  0.000969419 -4.39727e-05 
         400       4.2646     0.990765  0.000974538 -4.39157e-05 
         400      4.34945     0.992302  0.000979027 -4.38576e-05 
         400      4.43518     0.993617  0.000982943 -4.37981e-05 
         400      4.52169     0.994734  0.000986334  -4.3737e-05 
         400      4.60909     0.995677  0.000989253 -4.36744e-05 
         400      4.69728     0.996468  0.000991749 -4.36106e-05 
         400      4.78636     0.997125  0.000993871 -4.35463e-05 
         400      4.87621     0.997668   0.00099566  -4.3482e-05 
         400      4.96691     0.998114  0.000997158 -4.34185e-05 
         400      5.05849     0.998476  0.000998403 -4.33565e-05 
         400      5.15086     0.998769  0.000999426 -4.32964e-05 
         400      5.24411     0.999004   0.00100026 -4.32382e-05 
         400      5.33815      0.99919   0.00100093 -4.31813e-05 
         400      5.43308     0.999337   0.00100147 -4.31244e-05 
         400      5.52879     0.999452    0.0010019 -4.30655e-05 
         400       5.6254     0.999541   0.00100224 -4.30016e-05 
         400      5.72278      0.99961   0.00100249 -4.29291e-05 
         400      5.82099     0.999662    0.0010027 -4.28437e-05 
         400      5.92011     0.999701   0.00100293 -4.27539e-05 
         400         6.02     0.999731   0.00100311 -4.26699e-05 
         400      6.12078     0.999753   0.00100318 -4.25977e-05 
         400      6.22234     0.999769   0.00100313 -4.25425e-05 
         400       6.3248     0.999781    0.0010033 -4.24787e-05 
         400      6.42803      0.99979   0.00100338 -4.24068e-05 
         400      6.53216     0.999796   0.00100339 -4.23333e-05 
         400      6.63707       0.9998   0.00100333 -4.22619e-05 
         400      6.74287     0.999804   0.00100337 -4.21996e-05 
         400      6.84945     0.999806   0.00100337 -4.21336e-05 
         400      6.95686     0.999808   0.00100337 -4.20602e-05 
         400      7.06517     0.999809   0.00100339  -4.1981e-05 
         400      7.17426      0.99981   0.00100342 -4.18993e-05 
         400      7.28424      0.99981   0.00100346 -4.18186e-05 
         400        7.395     0.999811   0.00100351 -4.17415e-05 
         400      7.50666     0.999812   0.00100354 -4.16684e-05 
         400      7.61908     0.999812   0.00100356 -4.15985e-05 
         400      7.73241     0.999812   0.00100356 -4.15293e-05 
         400      7.84651     0.999813   0.00100356 -4.14578e-05 
         400      7.96145     0.999813   0.00100354 -4.13814e-05 
         400      8.07729     0.999813   0.00100354 -4.12986e-05 
         400      8.19389     0.999814   0.00100355 -4.12102e-05 
         400      8.31141     0.999814   0.00100357 -4.11192e-05 
         400      8.42969     0.999814   0.00100359 -4.10306e-05 
         400      8.54887     0.999815   0.00100359  -4.0949e-05 
         400      8.66882     0.999815   0.00100357 -4.08762e-05 
         400      8.78968     0.999816   0.00100354 -4.08047e-05 
         400      8.91131     0.999816    0.0010036 -4.07106e-05 
         400      9.03384     0.999816   0.00100361 -4.06322e-05 
         400      9.15713     0.999817   0.00100357  -4.0552e-05 
         400      9.28126     0.999817   0.00100362  -4.0449e-05 
         400       9.4063     0.999817   0.00100367 -4.03498e-05 
         400       9.5321     0.999818   0.00100369 -4.02635e-05 
         400      9.65882     0.999818    0.0010037 -4.01888e-05 
         400      9.78629     0.999818   0.00100369 -4.01187e-05 
         400      9.91468     0.999819   0.00100368 -4.00448e-05 
         400      10.0438     0.999819   0.00100367   -3.996e-05 
         400      10.1739      0.99982   0.00100368 -3.98609e-05 
         400      10.3047      0.99982    0.0010037 -3.97488e-05 
         400      10.4363      0.99982   0.00100376 -3.96306e-05 
         400      10.5689     0.999821   0.00100383 -3.95185e-05 
         400      10.7022     0.999821   0.00100384 -3.94316e-05 
         400      10.8365     0.999822   0.00100385 -3.93438e-05 
         400      10.9715     0.999822   0.00100386 -3.92646e-05 
         400      11.1074     0.999822   0.00100383 -3.92008e-05 
         400      11.2441     0.999823   0.00100379 -3.91378e-05 
         400      11.3816     0.999823   0.00100377 -3.90646e-05 
         400        11.52     0.999823   0.00100379 -3.89738e-05 
         400      11.6592     0.999824   0.00100384 -3.88635e-05 
         400      11.7993     0.999824   0.00100391 -3.87379e-05 
         400      11.9401     0.999825   0.00100398 -3.86101e-05 
         400      12.0819     0.999825     0.001004 -3.85044e-05 
         400      12.2244     0.999825   0.00100395  -3.8427e-05 
         400      12.3678     0.999826     0.001004 -3.82836e-05 
         400       12.512     0.999826   0.00100396 -3.81837e-05 
         400      12.6571     0.999827   0.00100392 -3.81019e-05 
         400       12.803     0.999827    0.0010039 -3.80226e-05 
         400      12.9498     0.999828   0.00100392 -3.79371e-05 
         400      13.0973     0.999828   0.00100396 -3.78425e-05 
         400      13.2457     0.999828   0.00100402  -3.7739e-05 
         400       13.395     0.999829   0.00100407 -3.76289e-05 
         400       13.545     0.999829   0.00100411 -3.75155e-05 
         400       13.696      0.99983   0.00100413 -3.74018e-05 
         400      13.8477      0.99983   0.00100413 -3.72903e-05 
         400      14.0004     0.999831   0.00100411 -3.71823e-05 
         400      14.1537     0.999831   0.00100409  -3.7078e-05 
         400      14.3081     0.999831   0.00100407 -3.69765e-05 
         400      14.4631     0.999832   0.00100406 -3.68761e-05 
         400       14.619     0.999832   0.00100406 -3.67747e-05 
         400      14.7758     0.999833   0.00100407   -3.667e-05 
         400      14.9334     0.999833    0.0010041 -3.65606e-05 
         400      15.0919     0.999834   0.00100413 -3.64459e-05 
         400      15.2511     0.999834   0.00100416 -3.63267e-05 
         400      15.4113     0.999835   0.00100418 -3.62051e-05 
         400      15.5722     0.999835    0.0010042 -3.60846e-05 
         400      15.7341     0.999836   0.00100422 -3.59687e-05 
         400      15.8966     0.999836   0.00100425 -3.58608e-05 
         400      16.0602     0.999837    0.0010043  -3.5761e-05 
         400      16.2244     0.999837   0.00100432  -3.5674e-05 
         400      16.3895     0.999838   0.00100431 -3.55737e-05 
         400      16.5555     0.999838   0.00100432 -3.54006e-05 
         400      16.7223     0.999838   0.00100448 -3.50883e-05 
         400        16.89     0.999839   0.00100416 -3.51739e-05 
         400      17.0584     0.999839   0.00100412 -3.50527e-05 
         400      17.2278      0.99984   0.00100427  -3.4975e-05 
         400      17.3979     0.999841   0.00100432 -3.48769e-05 
         400      17.5689     0.999841   0.00100432 -3.47585e-05 
         400      17.7407     0.999842   0.00100432 -3.46307e-05 
         400      17.9133     0.999842   0.00100432 -3.45004e-05 
         400      18.0869     0.999843   0.00100435 -3.43715e-05 
         400      18.2611     0.999843   0.00100438 -3.42459e-05 
         400      18.4364     0.999844   0.00100442 -3.41235e-05 
         400      18.6123     0.999844   0.00100445 -3.40038e-05 
         400      18.7892     0.999845   0.00100448 -3.38852e-05 
         400      18.9669     0.999845    0.0010045 -3.37666e-05 
         400      19.1454     0.999846   0.00100452 -3.36466e-05 
         400      19.3247     0.999846   0.00100452 -3.35242e-05 
         400       19.505     0.999847   0.00100453  -3.3399e-05 
         400      19.6859     0.999847   0.00100453 -3.32711e-05 
         400      19.8677     0.999848   0.00100453 -3.31408e-05 
         400      20.0505     0.999848   0.00100454 -3.30087e-05 
         400       20.234     0.999849   0.00100455 -3.28759e-05 
         400      20.4184     0.999849   0.00100456 -3.27433e-05 
         400      20.6035      0.99985   0.00100456 -3.26119e-05 
         400      20.7896     0.999851   0.00100457  -3.2482e-05 
         400      20.9765     0.999851   0.00100457  -3.2354e-05 
         400      21.1642     0.999851   0.00100457 -3.22275e-05 
         400      21.3527     0.999852   0.00100458 -3.21019e-05 
         400      21.5421     0.999852    0.0010046 -3.19763e-05 
         400      21.7323     0.999853   0.00100464 -3.18501e-05 
         400      21.9233     0.999854   0.00100468 -3.17232e-05 
         400      22.1153     0.999854   0.00100468 -3.15869e-05 
         400       22.308     0.999855   0.00100468 -3.14482e-05 
         400      22.5016     0.999855   0.00100469 -3.13111e-05 
         400      22.6959     0.999856    0.0010047 -3.11737e-05 
         400      22.8912     0.999856   0.00100471 -3.10352e-05 
         400      23.0872     0.999857   0.00100473 -3.08957e-05 
         400      23.2841     0.999858   0.00100476 -3.07558e-05 
         400      23.4819     0.999858   0.00100479 -3.06162e-05 
         400      23.6804     0.999859   0.00100482 -3.04777e-05 
         400      23.8799     0.999859   0.00100485 -3.03406e-05 
         400      24.0801      0.99986   0.00100489 -3.02053e-05 
         400      24.2813     0.999861   0.00100491 -3.00713e-05 
         400      24.4831     0.999861   0.00100492 -2.99381e-05 
         400       24.686     0.999862   0.00100493 -2.98049e-05 
         400      24.8895     0.999863   0.00100492 -2.96705e-05 
         400       25.094     0.999863    0.0010049 -2.95337e-05 
         400      25.2992     0.999864   0.00100488 -2.93937e-05 
         400      25.5052     0.999864   0.00100487 -2.92496e-05 
         400      25.7123     0.999865   0.00100487 -2.91011e-05 
         400        25.92     0.999865   0.00100488 -2.89486e-05 
         400      26.1287     0.999866   0.00100492  -2.8793e-05 
         400       26.338     0.999866   0.00100497 -2.86365e-05 
         400      26.5484     0.999867   0.00100502 -2.84815e-05 
         400      26.7595     0.999868   0.00100508 -2.83317e-05 
         400      26.9715     0.999869    0.0010051  -2.8191e-05 
         400      27.1842     0.999869   0.00100509  -2.8064e-05 
         400      27.3978      0.99987   0.00100503 -2.79548e-05 
         400      27.6123      0.99987   0.00100493 -2.78491e-05 
         400      27.8276     0.999871     0.001005 -2.76134e-05 
         400      28.0438     0.999872   0.00100506 -2.74349e-05 
         400      28.2607     0.999872    0.0010051 -2.72876e-05 
         400      28.4786     0.999873   0.00100513 -2.71531e-05 
         400      28.6972     0.999873   0.00100515 -2.70203e-05 
         400      28.9167     0.999874   0.00100516 -2.68825e-05 
         400       29.137     0.999874   0.00100518 -2.67372e-05 
         400      29.3582     0.999875   0.00100519 -2.65841e-05 
         400      29.5801     0.999876   0.00100521 -2.64247e-05 
         400      29.8029     0.999877   0.00100523 -2.62611e-05 
         400      30.0266     0.999877   0.00100524 -2.60956e-05 
         400      30.2511     0.999878   0.00100526 -2.59305e-05 
         400      30.4765     0.999879   0.00100526 -2.57672e-05 
         400      30.7026     0.999879   0.00100526 -2.56069e-05 
         400      30.9297      0.99988   0.00100526 -2.54496e-05 
         400      31.1574      0.99988   0.00100525  -2.5295e-05 
         400      31.3862     0.999881   0.00100525  -2.5142e-05 
         400      31.6156     0.999882   0.00100525 -2.49897e-05 
         400      31.8459     0.999882   0.00100527 -2.48367e-05 
         400      32.0772     0.999883    0.0010053  -2.4682e-05 
         400      32.3092     0.999884   0.00100534 -2.45252e-05 
         400      32.5421     0.999884   0.00100539 -2.43663e-05 
         400      32.7757     0.999885   0.00100543 -2.42059e-05 
         400      33.0103     0.999886   0.00100547 -2.40451e-05 
         400      33.2456     0.999887   0.00100547 -2.38853e-05 
         400      33.4819     0.999887   0.00100543  -2.3727e-05 
         400      33.7189     0.999888   0.00100536 -2.35698e-05 
         400      33.9567     0.999888   0.00100529 -2.34103e-05 
         400      34.1955     0.999889   0.00100535 -2.32387e-05 
         400       34.435      0.99989   0.00100543 -2.30566e-05 
         400      34.6754     0.999891   0.00100548 -2.28695e-05 
         400      34.9166     0.999891   0.00100551 -2.26823e-05 
         400      35.1587     0.999892   0.00100551 -2.24984e-05 
         400      35.4016     0.999893   0.00100549 -2.23205e-05 
         400      35.6454     0.999894   0.00100546 -2.21492e-05 
         400      35.8899     0.999895   0.00100544 -2.19843e-05 
         400      36.1353     0.999896   0.00100544  -2.1823e-05 
         400      36.3815     0.999896   0.00100548 -2.16615e-05 
         400      36.6285     0.999897   0.00100556 -2.14933e-05 
         400      36.8765     0.999898   0.00100568 -2.13152e-05 
         400      37.1252     0.999898   0.00100566 -2.11712e-05 
         400      37.3749     0.999899   0.00100569  -2.1016e-05 
         400      37.6252     0.999899   0.00100572 -2.08491e-05 
         400      37.8765       0.9999   0.00100575 -2.06717e-05 
         400      38.1286     0.999901   0.00100576 -2.04861e-05 
         400      38.3816     0.999901   0.00100574  -2.0295e-05 
         400      38.6353     0.999902   0.00100571 -2.01011e-05 
         400      38.8898     0.999903   0.00100567  -1.9907e-05 
         400      39.1453     0.999904   0.00100565 -1.97145e-05 
         400      39.4015     0.999905   0.00100566 -1.95255e-05 
         400      39.6587     0.999906   0.00100569 -1.93408e-05 
         400      39.9166     0.999906   0.00100574  -1.9161e-05 
         400      40.1754     0.999907   0.00100581 -1.89857e-05 
         400       40.435     0.999908   0.00100586 -1.88144e-05 
         400      40.6955     0.999908   0.00100587 -1.86452e-05 
         400      40.9567     0.999909   0.00100582 -1.84753e-05 
         400      41.2189      0.99991   0.00100571    -1.83e-05 
         400      41.4818     0.999911   0.00100562 -1.81124e-05 
         400      41.7456     0.999912   0.00100572 -1.79019e-05 
         400      42.0103     0.999913   0.00100606 -1.76751e-05 
         400      42.2757     0.999913    0.0010058 -1.75164e-05 
         400      42.5421     0.999914   0.00100578 -1.73402e-05 
         400      42.8091     0.999914   0.00100588 -1.71557e-05 
         400      43.0772     0.999915     0.001006 -1.69686e-05 
         400      43.3459     0.999916   0.00100608 -1.67821e-05 
         400      43.6157     0.999917   0.00100611 -1.65973e-05 
         400      43.8861     0.999918   0.00100608 -1.64141e-05 
         400      44.1573     0.999919   0.00100601 -1.62316e-05 
         400      44.4296     0.999919   0.00100592 -1.60482e-05 
         400      44.7025      0.99992   0.00100583 -1.58628e-05 
         400      44.9764     0.999921   0.00100577 -1.56739e-05 
         400       45.251     0.999921   0.00100574 -1.54811e-05 
         400      45.5266     0.999922   0.00100577 -1.52839e-05 
         400      45.8029     0.999922   0.00100583 -1.50831e-05 
         400      46.0801     0.999923   0.00100593 -1.48797e-05 
         400      46.3581     0.999924   0.00100605 -1.46755e-05 
         400      46.6368     0.999925   0.00100617 -1.44725e-05 
         400      46.9166     0.999925   0.00100626 -1.42729e-05 
         400       47.197     0.999926   0.00100631  -1.4079e-05 
         400      47.4785     0.999927   0.00100631 -1.38922e-05 
         400      47.7606     0.999928   0.00100627 -1.37137e-05 
         400      48.0437     0.999929   0.00100619 -1.35427e-05 
         400      48.3275      0.99993    0.0010061 -1.33771e-05 
         400      48.6123     0.999931   0.00100603  -1.3212e-05 
         400      48.8978     0.999931   0.00100599   -1.304e-05 
         400      49.1842     0.999932   0.00100598 -1.28495e-05 
         400      49.4714     0.999933   0.00100602 -1.26542e-05 
         400      49.7593     0.999934   0.00100609  -1.2432e-05 
         400      50.0483     0.999934   0.00100626 -1.21884e-05 
         400      50.3379     0.999935   0.00100648 -1.19384e-05 
         400      50.6286     0.999936   0.00100663 -1.17041e-05 
         400      50.9199     0.999937   0.00100637 -1.15182e-05 
         400      51.2122     0.999938   0.00100583 -1.14233e-05 
         400      51.5052     0.999938   0.00100647   -1.132e-05 
         400      51.7992     0.999939   0.00100643 -1.11483e-05 
         400      52.0938      0.99994   0.00100614 -1.09159e-05 
         400      52.3893     0.999941   0.00100587  -1.0623e-05 
         400      52.6858     0.999942    0.0010058 -1.02633e-05 
         400       52.983     0.999942   0.00100603 -9.82533e-06 
         400      53.2811     0.999943   0.00100649 -9.35293e-06 
         400        53.58     0.999944   0.00100621 -9.45804e-06 
         400      53.8798     0.999946   0.00100609 -9.46819e-06 
         400      54.1803     0.999947    0.0010061 -9.39408e-06 
         400      54.4819     0.999948   0.00100617  -9.2489e-06 
         400       54.784     0.999949   0.00100627 -9.04752e-06 
         400      55.0872     0.999949   0.00100635 -8.80486e-06 
         400      55.3911      0.99995    0.0010064 -8.53595e-06 
         400      55.6957     0.999951   0.00100642 -8.25421e-06 
         400      56.0014     0.999952   0.00100639 -7.97123e-06 
         400      56.3078     0.999952   0.00100634 -7.69686e-06 
         400      56.6152     0.999953   0.00100629 -7.43766e-06 
         400      56.9232     0.999954   0.00100625   -7.198e-06 
         400      57.2323     0.999955   0.00100624 -6.97884e-06 
         400      57.5419     0.999956   0.00100627 -6.77893e-06 
         400      57.8527     0.999957   0.00100632 -6.59412e-06 
         400       58.164     0.999958    0.0010064 -6.41876e-06 
         400      58.4762     0.999959   0.00100647 -6.24557e-06 
         400      58.7895      0.99996   0.00100652 -6.06685e-06 
         400      59.1034     0.999961   0.00100652 -5.87579e-06 
         400      59.4183     0.999962   0.00100645 -5.66702e-06 
         400      59.7338     0.999963   0.00100634 -5.43897e-06 
         400      60.0504     0.999963   0.00100624 -5.19454e-06 
         400      60.3676     0.999964   0.00100626 -4.94415e-06 
         400      60.6858     0.999964   0.00100659 -4.70674e-06 
         400      61.0047     0.999965   0.00100664 -4.48538e-06 
         400      61.3245     0.999966   0.00100631 -4.27254e-06 
         400      61.6452     0.999967   0.00100624 -4.07353e-06 
         400      61.9666     0.999968    0.0010063 -3.87696e-06 
         400      62.2891     0.999969   0.00100639 -3.67478e-06 
         400      62.6121      0.99997   0.00100647 -3.46263e-06 
         400      62.9362     0.999971   0.00100652 -3.23823e-06 
         400       63.261     0.999972   0.00100653 -3.00181e-06 
         400      63.5868     0.999973   0.00100651 -2.75454e-06 
         400      63.9132     0.999973   0.00100646 -2.49921e-06 
         400      64.2406     0.999974   0.00100642 -2.23858e-06 
         400      64.5687     0.999975   0.00100638 -1.97628e-06 
         400      64.8976     0.999976   0.00100635 -1.71538e-06 
         400      65.2276     0.999977   0.00100635  -1.4586e-06 
         400      65.5582     0.999978   0.00100637 -1.20856e-06 
         400      65.8898     0.999978    0.0010064  -9.6655e-07 
         400      66.2221     0.999979   0.00100645 -7.33639e-07 
         400      66.5554      0.99998    0.0010065 -5.09448e-07 
         400      66.8893     0.999981   0.00100654 -2.93277e-07 
         400      67.2243     0.999982   0.00100656 -8.30957e-08 
         400      67.5599     0.999983   0.00100657  1.23304e-07 
         400      67.8964     0.999984   0.00100655  3.29029e-07 
         400      68.2338     0.999985   0.00100651  5.37477e-07 
         400       68.572     0.999986   0.00100645   7.5169e-07 
         400      68.9111     0.999987   0.00100637  9.74897e-07 
         400      69.2509     0.999988    0.0010063   1.2091e-06 
         400      69.5917     0.999989   0.00100624  1.45571e-06 
         400      69.9332      0.99999   0.00100621  1.71393e-06 
         400      70.2757     0.999991   0.00100621   1.9814e-06 
         400      70.6188     0.999992   0.00100627  2.25236e-06 
         400       70.963     0.999993   0.00100636  2.51833e-06 
         400      71.3078     0.999994   0.00100648  2.76609e-06 
         400      71.6535     0.999994    0.0010066  2.97812e-06 
         400      72.0001     0.999995   0.00100666  3.13129e-06 
         400      72.3475     0.999996   0.00100659  3.19579e-06 
         400      72.6958     0.999997   0.00100666  3.44179e-06 
         400      73.0448     0.999998   0.00100688  3.88403e-06 
         400      73.3948     0.999998   0.00100688  4.21745e-06 
         400      73.7455     0.999999   0.00100669  4.47816e-06 
         400      74.0972            1   0.00100642  4.70547e-06 
         400      74.4495            1   0.00100622  4.94405e-06 
         400      74.8027            1   0.00100635  5.24892e-06 
         400      75.1569      1.00001   0.00100685  5.58089e-06 
         400      75.5117            1    0.0010064  5.64504e-06 
         400      75.8676            1   0.00100601  5.84273e-06 
         400      76.2241            1   0.00100581  6.09778e-06 
         400      76.5817      1.00001   0.00100602  6.32077e-06 
         400      76.9399      1.00001   0.00100673  6.47601e-06 
         400      77.2991      1.00001   0.00100621  6.91879e-06 
         400      77.6589      1.00001   0.00100606  7.29358e-06 
         400      78.0198      1.00001   0.00100612  7.61384e-06 
         400      78.3814      1.00001   0.00100628  7.89142e-06 
         400      78.7437      1.00001   0.00100646  8.13778e-06 
         400      79.1071      1.00001   0.00100663  8.36316e-06 
         400      79.4712      1.00002   0.00100674  8.57612e-06 
         400      79.8363      1.00002    0.0010068  8.78444e-06 
         400       80.202      1.00002   0.00100679  8.99398e-06 
         400      80.5687      1.00002   0.00100672  9.20974e-06 
         400      80.9361      1.00002   0.00100661  9.43484e-06 
         400      81.3045      1.00002   0.00100648  9.67165e-06 
         400      81.6736      1.00002   0.00100634  9.92082e-06 
         400      82.0435      1.00002   0.00100621  1.01823e-05 
         400      82.4144      1.00002   0.00100609  1.04552e-05 
         400       82.786      1.00002     0.001006  1.07374e-05 
         400      83.1586      1.00002   0.00100595  1.10268e-05 
         400      83.5318      1.00002   0.00100594  1.13202e-05 
         400      83.9061      1.00002   0.00100596   1.1615e-05 
         400       84.281      1.00003   0.00100601  1.19079e-05 
         400      84.6569      1.00003   0.00100609  1.21962e-05 
         400      85.0335      1.00003   0.00100619  1.24774e-05 
         400      85.4109      1.00003   0.00100629  1.27495e-05 