Variables = x, y, u, v, p

Zone, I=800, F=POINT
         550            0            0            0 -3.40021e-05 
         550     0.000234  8.24347e-05  5.43975e-12 -3.40021e-05 
         550     0.000939  0.000330796  8.75534e-11  -3.4002e-05 
         550     0.002113  0.000744378  4.43309e-10 -3.40017e-05 
         550     0.003759   0.00132424  1.40295e-09 -3.40014e-05 
         550     0.005872   0.00206862  3.42349e-09  -3.4001e-05 
         550     0.008457   0.00297928  7.10117e-09 -3.40005e-05 
         550      0.01151    0.0040548  1.31537e-08 -3.39999e-05 
         550     0.015036   0.00529696  2.24473e-08 -3.39992e-05 
         550     0.019031   0.00670435  3.59603e-08 -3.39984e-05 
         550     0.023493   0.00827625  5.47997e-08 -3.39975e-05 
         550     0.028429    0.0100151  8.02462e-08 -3.39965e-05 
         550     0.033831    0.0119182   1.1364e-07 -3.39954e-05 
         550     0.039706    0.0139879  1.56536e-07 -3.39943e-05 
         550     0.046047    0.0162217  2.10526e-07  -3.3993e-05 
         550     0.052863    0.0186229  2.77465e-07 -3.39916e-05 
         550      0.06015      0.02119  3.59232e-07 -3.39902e-05 
         550       0.0679    0.0239202  4.57767e-07 -3.39887e-05 
         550     0.076126    0.0268181  5.75402e-07  -3.3987e-05 
         550     0.084816    0.0298795  7.14267e-07 -3.39853e-05 
         550     0.093982    0.0331085   8.7699e-07 -3.39835e-05 
         550     0.103611    0.0365006   1.0659e-06 -3.39816e-05 
         550     0.113718    0.0400611  1.28399e-06 -3.39796e-05 
         550     0.124286    0.0437839  1.53372e-06 -3.39775e-05 
         550     0.135333    0.0476754  1.81848e-06 -3.39753e-05 
         550      0.14685    0.0517324  2.14115e-06  -3.3973e-05 
         550     0.158827    0.0559513  2.50463e-06 -3.39706e-05 
         550     0.171284    0.0603392  2.91289e-06 -3.39681e-05 
         550     0.184201    0.0648889  3.36875e-06 -3.39656e-05 
         550     0.197599    0.0696079  3.87658e-06 -3.39629e-05 
         550     0.211455     0.074488  4.43922e-06 -3.39601e-05 
         550     0.225792    0.0795371  5.06148e-06 -3.39573e-05 
         550       0.2406    0.0847518  5.74698e-06 -3.39544e-05 
         550     0.255865    0.0901269  6.49916e-06 -3.39513e-05 
         550     0.271613    0.0956716  7.32349e-06 -3.39482e-05 
         550     0.287818     0.101377  8.22304e-06  -3.3945e-05 
         550     0.304506     0.107251  9.20376e-06 -3.39416e-05 
         550      0.32165     0.113284  1.02687e-05 -3.39382e-05 
         550     0.339278     0.119487  1.14243e-05 -3.39347e-05 
         550     0.357377     0.125855  1.26746e-05 -3.39311e-05 
         550      0.37593     0.132381  1.40234e-05 -3.39274e-05 
         550     0.394968     0.139075  1.54781e-05 -3.39236e-05 
         550     0.414461     0.145928  1.70415e-05 -3.39197e-05 
         550      0.43444     0.152949  1.87215e-05 -3.39157e-05 
         550     0.454872     0.160126  2.05208e-05 -3.39117e-05 
         550     0.475791     0.167472  2.24477e-05 -3.39075e-05 
         550     0.497163     0.174973  2.45049e-05 -3.39032e-05 
         550     0.519021      0.18264  2.67011e-05 -3.38988e-05 
         550      0.54135     0.190469  2.90409e-05 -3.38943e-05 
         550     0.564131      0.19845  3.15281e-05 -3.38898e-05 
         550       0.5874     0.206596  3.41725e-05 -3.38851e-05 
         550     0.611121     0.214895  3.69757e-05 -3.38803e-05 
         550      0.63533     0.223356  3.99485e-05 -3.38754e-05 
         550      0.65999     0.231966  4.30928e-05 -3.38704e-05 
         550     0.685139     0.240738  4.64191e-05 -3.38653e-05 
         550     0.710759     0.249664  4.99314e-05 -3.38601e-05 
         550     0.736828     0.258734  5.36325e-05 -3.38548e-05 
         550     0.763387     0.267962  5.75347e-05 -3.38494e-05 
         550     0.790396     0.277332  6.16383e-05 -3.38439e-05 
         550     0.817896     0.286856  6.59559e-05 -3.38382e-05 
         550     0.845843     0.296517  7.04868e-05 -3.38325e-05 
         550     0.874283     0.306328  7.52446e-05 -3.38266e-05 
         550      0.90317     0.316273  8.02276e-05 -3.38206e-05 
         550     0.932551     0.326364  8.54497e-05 -3.38144e-05 
         550     0.962401     0.336589  9.09125e-05 -3.38082e-05 
         550     0.992697      0.34694  9.66171e-05 -3.38018e-05 
         550      1.02349     0.357427  0.000102578 -3.37952e-05 
         550      1.05472     0.368032  0.000108791 -3.37885e-05 
         550      1.08645     0.378769  0.000115271 -3.37817e-05 
         550      1.11863     0.389614  0.000122012 -3.37748e-05 
         550       1.1513     0.400583  0.000129031 -3.37677e-05 
         550      1.18444     0.411663  0.000136326 -3.37605e-05 
         550      1.21802     0.422838  0.000143895 -3.37531e-05 
         550      1.25211     0.434123  0.000151754 -3.37455e-05 
         550      1.28663     0.445494  0.000159892 -3.37377e-05 
         550      1.32165     0.456963  0.000168326 -3.37298e-05 
         550      1.35712     0.468507  0.000177044 -3.37216e-05 
         550      1.39308     0.480138   0.00018606 -3.37133e-05 
         550      1.42951      0.49184   0.00019537 -3.37047e-05 
         550      1.46638     0.503596  0.000204966  -3.3696e-05 
         550      1.50375     0.515418  0.000214869 -3.36872e-05 
         550      1.54156     0.527281  0.000225055  -3.3678e-05 
         550      1.57987     0.539193  0.000235536 -3.36685e-05 
         550      1.61863      0.55113  0.000246296 -3.36589e-05 
         550      1.65788     0.563101  0.000257349 -3.36491e-05 
         550      1.69757     0.575077  0.000268675  -3.3639e-05 
         550      1.73776     0.587069  0.000280287 -3.36286e-05 
         550      1.77842     0.599058  0.000292171  -3.3618e-05 
         550      1.81952     0.611023  0.000304308  -3.3607e-05 
         550      1.86113     0.622975  0.000316711 -3.35958e-05 
         550      1.90316     0.634884  0.000329349 -3.35842e-05 
         550      1.94571     0.646757  0.000342234 -3.35723e-05 
         550      1.98869     0.658565  0.000355331   -3.356e-05 
         550      2.03217     0.670315  0.000368651 -3.35474e-05 
         550      2.07612     0.681987  0.000382168 -3.35345e-05 
         550      2.12051      0.69356  0.000395858 -3.35212e-05 
         550       2.1654      0.70504  0.000409726 -3.35075e-05 
         550      2.21073     0.716399  0.000423734 -3.34935e-05 
         550      2.25656     0.727641  0.000437887 -3.34791e-05 
         550      2.30283     0.738737  0.000452144 -3.34643e-05 
         550       2.3496     0.749694  0.000466509 -3.34491e-05 
         550      2.39685      0.76049  0.000480949 -3.34335e-05 
         550      2.44452     0.771107  0.000495433 -3.34175e-05 
         550      2.49271     0.781548  0.000509962  -3.3401e-05 
         550      2.54132     0.791788  0.000524489 -3.33841e-05 
         550      2.59044     0.801831  0.000539016 -3.33666e-05 
         550         2.64     0.811652  0.000553495 -3.33487e-05 
         550      2.69006     0.821255  0.000567923 -3.33303e-05 
         550      2.74056     0.830617  0.000582255 -3.33114e-05 
         550      2.79156     0.839743  0.000596487  -3.3292e-05 
         550      2.84304     0.848618  0.000610582 -3.32721e-05 
         550      2.89494     0.857227  0.000624505 -3.32517e-05 
         550      2.94735     0.865576  0.000638253 -3.32309e-05 
         550       3.0002     0.873647  0.000651779 -3.32095e-05 
         550      3.05355     0.881447  0.000665083 -3.31877e-05 
         550      3.10733     0.888959  0.000678119 -3.31655e-05 
         550      3.16163     0.896191  0.000690889 -3.31429e-05 
         550      3.21639     0.903134  0.000703361 -3.31198e-05 
         550      3.27158     0.909781  0.000715508 -3.30963e-05 
         550      3.32729     0.916142  0.000727333 -3.30722e-05 
         550      3.38342     0.922207  0.000738801 -3.30476e-05 
         550      3.44007     0.927985  0.000749918 -3.30223e-05 
         550      3.49714     0.933469  0.000760652  -3.2996e-05 
         550      3.55472     0.938672  0.000771007 -3.29685e-05 
         550      3.61273     0.943587  0.000780954 -3.29393e-05 
         550      3.67125     0.948227   0.00079049 -3.29078e-05 
         550      3.73025     0.952594  0.000799586 -3.28732e-05 
         550      3.78967      0.95669   0.00080825 -3.28537e-05 
         550      3.84961     0.960528  0.000816451 -3.28312e-05 
         550      3.90996      0.96411  0.000824177 -3.27961e-05 
         550      3.97084     0.967449  0.000831633 -3.27775e-05 
         550      4.03214     0.970549  0.000838675 -3.27582e-05 
         550      4.09395     0.973423  0.000845283 -3.27328e-05 
         550      4.15624     0.976077  0.000851468 -3.27029e-05 
         550      4.21895     0.978521   0.00085724 -3.26699e-05 
         550      4.28217     0.980767  0.000862621 -3.26348e-05 
         550      4.34582     0.982822  0.000867618 -3.25984e-05 
         550      4.40998     0.984701  0.000872251 -3.25614e-05 
         550      4.47457     0.986409  0.000876527 -3.25244e-05 
         550      4.53968     0.987961  0.000880467 -3.24876e-05 
         550      4.60525     0.989364  0.000884082 -3.24513e-05 
         550      4.67125     0.990629  0.000887387 -3.24155e-05 
         550      4.73777     0.991766  0.000890401 -3.23803e-05 
         550       4.8047     0.992784  0.000893137 -3.23457e-05 
         550      4.87216     0.993694  0.000895615 -3.23114e-05 
         550      4.94003     0.994502  0.000897851 -3.22774e-05 
         550      5.00843      0.99522  0.000899863 -3.22434e-05 
         550      5.07724     0.995853  0.000901665 -3.22094e-05 
         550      5.14658      0.99641  0.000903277  -3.2175e-05 
         550      5.21639     0.996899  0.000904713 -3.21402e-05 
         550      5.28661     0.997326  0.000905987 -3.21049e-05 
         550      5.35736     0.997698  0.000907115 -3.20689e-05 
         550      5.42852     0.998021  0.000908108 -3.20323e-05 
         550      5.50021     0.998299  0.000908979 -3.19949e-05 
         550      5.57231     0.998539  0.000909738 -3.19569e-05 
         550      5.64493     0.998745  0.000910396 -3.19183e-05 
         550      5.71803      0.99892  0.000910963 -3.18792e-05 
         550      5.79154     0.999069  0.000911446 -3.18399e-05 
         550      5.86558     0.999195  0.000911855 -3.18003e-05 
         550      5.94003     0.999302  0.000912199 -3.17608e-05 
         550      6.01501     0.999391  0.000912486 -3.17214e-05 
         550       6.0904     0.999466  0.000912726 -3.16824e-05 
         550      6.16632     0.999528  0.000912928 -3.16439e-05 
         550      6.24271     0.999579  0.000913102 -3.16059e-05 
         550       6.3195     0.999622  0.000913255 -3.15686e-05 
         550      6.39683     0.999657  0.000913393 -3.15318e-05 
         550      6.47457     0.999685   0.00091352 -3.14955e-05 
         550      6.55284     0.999709  0.000913632 -3.14593e-05 
         550      6.63152     0.999727  0.000913714  -3.1423e-05 
         550      6.71073     0.999743  0.000913739  -3.1386e-05 
         550      6.79034     0.999755  0.000913756 -3.13441e-05 
         550      6.87049     0.999764  0.000913869 -3.12954e-05 
         550      6.95111     0.999772  0.000913907 -3.12494e-05 
         550      7.03214     0.999779  0.000913913 -3.12057e-05 
         550       7.1137     0.999784  0.000913911 -3.11636e-05 
         550      7.19566     0.999788  0.000913915 -3.11225e-05 
         550      7.27816     0.999791  0.000913932  -3.1082e-05 
         550      7.36106     0.999794   0.00091396 -3.10415e-05 
         550      7.44451     0.999795  0.000913995 -3.10006e-05 
         550      7.52842     0.999797  0.000914032 -3.09589e-05 
         550      7.61273     0.999798  0.000914065 -3.09161e-05 
         550      7.69758     0.999799  0.000914088 -3.08721e-05 
         550      7.78283       0.9998    0.0009141 -3.08269e-05 
         550      7.86862       0.9998    0.0009141 -3.07805e-05 
         550      7.95481     0.999801   0.00091409 -3.07331e-05 
         550      8.04155     0.999802  0.000914072 -3.06851e-05 
         550      8.12868     0.999802  0.000914052 -3.06369e-05 
         550      8.21635     0.999803  0.000914035 -3.05889e-05 
         550      8.30449     0.999803  0.000914026 -3.05418e-05 
         550      8.39303     0.999804  0.000914029  -3.0496e-05 
         550      8.48211     0.999804  0.000914045 -3.04518e-05 
         550      8.57159     0.999804  0.000914073 -3.04094e-05 
         550      8.66161     0.999804  0.000914109 -3.03686e-05 
         550      8.75203     0.999804  0.000914145 -3.03288e-05 
         550      8.84299     0.999804  0.000914171 -3.02886e-05 
         550      8.93443     0.999805  0.000914178 -3.02457e-05 
         550      9.02626     0.999805  0.000914158 -3.01969e-05 
         550      9.11863     0.999805   0.00091411 -3.01373e-05 
         550      9.21139     0.999806  0.000914045 -3.00604e-05 
         550      9.30471     0.999806  0.000914027 -3.00033e-05 
         550      9.39841     0.999806   0.00091406 -2.99609e-05 
         550      9.49267     0.999807  0.000914146 -2.99341e-05 
         550      9.58739     0.999807  0.000914262 -2.99301e-05 
         550      9.68251     0.999808  0.000914193 -2.98951e-05 
         550      9.77817     0.999808  0.000914121 -2.98253e-05 
         550      9.87422     0.999808  0.000914139 -2.97656e-05 
         550      9.97083     0.999808  0.000914179 -2.97116e-05 
         550      10.0678     0.999808  0.000914208 -2.96607e-05 
         550      10.1654     0.999809  0.000914217 -2.96106e-05 
         550      10.2633     0.999809  0.000914208 -2.95601e-05 
         550      10.3618     0.999809  0.000914193 -2.95086e-05 
         550      10.4607      0.99981  0.000914179 -2.94557e-05 
         550      10.5601      0.99981  0.000914173 -2.94016e-05 
         550        10.66      0.99981   0.00091418 -2.93463e-05 
         550      10.7603     0.999811  0.000914197 -2.92902e-05 
         550      10.8611     0.999811  0.000914221 -2.92337e-05 
         550      10.9623     0.999811  0.000914245 -2.91769e-05 
         550      11.0641     0.999812  0.000914265 -2.91202e-05 
         550      11.1663     0.999812  0.000914274 -2.90637e-05 
         550       11.269     0.999812  0.000914272 -2.90075e-05 
         550      11.3721     0.999812  0.000914259 -2.89516e-05 
         550      11.4757     0.999813   0.00091424 -2.88959e-05 
         550      11.5798     0.999813  0.000914221 -2.88403e-05 
         550      11.6844     0.999813  0.000914211 -2.87848e-05 
         550      11.7894     0.999814  0.000914217 -2.87293e-05 
         550       11.895     0.999814  0.000914243 -2.86739e-05 
         550      12.0009     0.999814  0.000914286 -2.86186e-05 
         550      12.1073     0.999815  0.000914338 -2.85636e-05 
         550      12.2142     0.999815  0.000914385 -2.85092e-05 
         550      12.3216     0.999815  0.000914406 -2.84553e-05 
         550      12.4294     0.999816  0.000914383 -2.84023e-05 
         550      12.5378     0.999816  0.000914311 -2.83497e-05 
         550      12.6465     0.999817  0.000914217 -2.82972e-05 
         550      12.7558     0.999817  0.000914187 -2.82434e-05 
         550      12.8656     0.999817    0.0009142 -2.81919e-05 
         550      12.9757     0.999817  0.000914172  -2.8141e-05 
         550      13.0864     0.999818  0.000914206 -2.80856e-05 
         550      13.1975     0.999818  0.000914277 -2.80266e-05 
         550      13.3092     0.999819  0.000914358 -2.79646e-05 
         550      13.4212     0.999819  0.000914417 -2.79009e-05 
         550      13.5338     0.999819  0.000914414 -2.78369e-05 
         550      13.6468     0.999819  0.000914301 -2.77753e-05 
         550      13.7603      0.99982  0.000914244 -2.77162e-05 
         550      13.8743      0.99982  0.000914434 -2.76531e-05 
         550      13.9886      0.99982  0.000914466 -2.75907e-05 
         550      14.1036     0.999821   0.00091442 -2.75281e-05 
         550      14.2189     0.999821  0.000914353 -2.74654e-05 
         550      14.3348     0.999822  0.000914296 -2.74027e-05 
         550       14.451     0.999822  0.000914269 -2.73405e-05 
         550      14.5678     0.999822  0.000914276 -2.72789e-05 
         550      14.6851     0.999823  0.000914313 -2.72184e-05 
         550      14.8028     0.999823  0.000914371 -2.71593e-05 
         550       14.921     0.999824  0.000914437 -2.71013e-05 
         550      15.0396     0.999824  0.000914501 -2.70444e-05 
         550      15.1588     0.999824  0.000914551 -2.69883e-05 
         550      15.2783     0.999825   0.00091458 -2.69325e-05 
         550      15.3984     0.999825  0.000914586 -2.68764e-05 
         550       15.519     0.999825  0.000914568 -2.68195e-05 
         550        15.64     0.999826  0.000914532 -2.67614e-05 
         550      15.7615     0.999826  0.000914484 -2.67014e-05 
         550      15.8834     0.999827  0.000914435 -2.66395e-05 
         550      16.0058     0.999827  0.000914395 -2.65757e-05 
         550      16.1286     0.999827  0.000914371 -2.65101e-05 
         550       16.252     0.999828  0.000914372 -2.64435e-05 
         550      16.3759     0.999828  0.000914398 -2.63765e-05 
         550      16.5002     0.999828  0.000914448 -2.63104e-05 
         550       16.625     0.999829  0.000914512 -2.62461e-05 
         550      16.7501     0.999829  0.000914576 -2.61847e-05 
         550      16.8759     0.999829  0.000914626 -2.61268e-05 
         550       17.002      0.99983  0.000914644 -2.60726e-05 
         550      17.1287      0.99983  0.000914622 -2.60207e-05 
         550      17.2557     0.999831  0.000914562 -2.59684e-05 
         550      17.3834     0.999831  0.000914497 -2.59103e-05 
         550      17.5115     0.999832  0.000914498  -2.5838e-05 
         550      17.6399     0.999832    0.0009147 -2.57386e-05 
         550       17.769     0.999832  0.000914644 -2.56843e-05 
         550      17.8984     0.999833  0.000914496 -2.56454e-05 
         550      18.0284     0.999833  0.000914477 -2.55868e-05 
         550      18.1587     0.999834  0.000914523 -2.55158e-05 
         550      18.2896     0.999834   0.00091459 -2.54375e-05 
         550       18.421     0.999834  0.000914652 -2.53557e-05 
         550      18.5528     0.999835  0.000914693 -2.52733e-05 
         550      18.6851     0.999835  0.000914709 -2.51919e-05 
         550      18.8178     0.999835  0.000914699 -2.51125e-05 
         550      18.9511     0.999836  0.000914671 -2.50355e-05 
         550      19.0847     0.999836   0.00091463  -2.4961e-05 
         550      19.2189     0.999837  0.000914585 -2.48886e-05 
         550      19.3535     0.999837  0.000914544  -2.4818e-05 
         550      19.4886     0.999837  0.000914513 -2.47488e-05 
         550      19.6242     0.999838  0.000914497 -2.46805e-05 
         550      19.7602     0.999838  0.000914498 -2.46128e-05 
         550      19.8968     0.999839  0.000914517 -2.45451e-05 
         550      20.0337     0.999839  0.000914552 -2.44772e-05 
         550      20.1712      0.99984  0.000914599 -2.44086e-05 
         550      20.3091      0.99984  0.000914653 -2.43389e-05 
         550      20.4475     0.999841  0.000914707  -2.4267e-05 
         550      20.5864     0.999841  0.000914752 -2.41919e-05 
         550      20.7257     0.999841  0.000914779 -2.41118e-05 
         550      20.8655     0.999842  0.000914775 -2.40241e-05 
         550      21.0058     0.999842  0.000914729 -2.39252e-05 
         550      21.1465     0.999843  0.000914624 -2.38101e-05 
         550      21.2877     0.999843  0.000914628 -2.37425e-05 
         550      21.4294     0.999844  0.000914714 -2.37074e-05 
         550      21.5716     0.999844  0.000914756 -2.36529e-05 
         550      21.7142     0.999844  0.000914771  -2.3584e-05 
         550      21.8573     0.999845  0.000914775 -2.35049e-05 
         550      22.0008     0.999845  0.000914776 -2.34196e-05 
         550      22.1449     0.999846  0.000914777 -2.33316e-05 
         550      22.2893     0.999846   0.00091478 -2.32439e-05 
         550      22.4344     0.999846  0.000914784 -2.31591e-05 
         550      22.5797     0.999847  0.000914786 -2.30792e-05 
         550      22.7257     0.999847  0.000914785 -2.30052e-05 
         550      22.8721     0.999848  0.000914778 -2.29376e-05 
         550      23.0189     0.999848  0.000914769 -2.28754e-05 
         550      23.1663     0.999849  0.000914763  -2.2816e-05 
         550       23.314     0.999849  0.000914767 -2.27555e-05 
         550      23.4623      0.99985  0.000914795 -2.26869e-05 
         550       23.611      0.99985  0.000914862  -2.2601e-05 
         550      23.7602      0.99985  0.000914983 -2.24846e-05 
         550        23.91     0.999851  0.000914949 -2.24327e-05 
         550        24.06     0.999852  0.000914907 -2.23808e-05 
         550      24.2107     0.999852  0.000914891 -2.23147e-05 
         550      24.3617     0.999853  0.000914894 -2.22391e-05 
         550      24.5133     0.999853   0.00091491 -2.21576e-05 
         550      24.6653     0.999854  0.000914931 -2.20731e-05 
         550      24.8178     0.999854  0.000914951 -2.19875e-05 
         550      24.9708     0.999854  0.000914967 -2.19023e-05 
         550      25.1242     0.999855  0.000914975 -2.18184e-05 
         550      25.2781     0.999855  0.000914973 -2.17361e-05 
         550      25.4324     0.999856   0.00091496 -2.16556e-05 
         550      25.5873     0.999856  0.000914937 -2.15765e-05 
         550      25.7426     0.999857  0.000914907 -2.14986e-05 
         550      25.8984     0.999857  0.000914872 -2.14211e-05 
         550      26.0546     0.999858  0.000914836 -2.13435e-05 
         550      26.2114     0.999858  0.000914802 -2.12651e-05 
         550      26.3686     0.999859  0.000914775 -2.11853e-05 
         550      26.5262     0.999859  0.000914757 -2.11038e-05 
         550      26.6844      0.99986  0.000914753 -2.10201e-05 
         550      26.8429      0.99986  0.000914763  -2.0934e-05 
         550       27.002     0.999861  0.000914789 -2.08455e-05 
         550      27.1615     0.999861  0.000914831 -2.07549e-05 
         550      27.3216     0.999862  0.000914889 -2.06625e-05 
         550      27.4821     0.999862  0.000914957 -2.05689e-05 
         550       27.643     0.999863  0.000915034 -2.04752e-05 
         550      27.8044     0.999863  0.000915113 -2.03822e-05 
         550      27.9663     0.999864  0.000915187 -2.02912e-05 
         550      28.1287     0.999864  0.000915249 -2.02034e-05 
         550      28.2914     0.999865  0.000915291 -2.01203e-05 
         550      28.4548     0.999865  0.000915306 -2.00432e-05 
         550      28.6185     0.999866  0.000915286 -1.99736e-05 
         550      28.7828     0.999866  0.000915226 -1.99127e-05 
         550      28.9475     0.999866  0.000915119 -1.98615e-05 
         550      29.1126     0.999867  0.000914967 -1.98208e-05 
         550      29.2784     0.999867  0.000914898  -1.9733e-05 
         550      29.4444     0.999868  0.000914887 -1.96171e-05 
         550       29.611     0.999868  0.000914871 -1.95079e-05 
         550       29.778     0.999869  0.000914862 -1.94049e-05 
         550      29.9456      0.99987  0.000914872 -1.93076e-05 
         550      30.1137      0.99987   0.00091491  -1.9216e-05 
         550      30.2821     0.999871  0.000914981 -1.91302e-05 
         550      30.4511     0.999872   0.00091508 -1.90503e-05 
         550      30.6204     0.999872  0.000915191 -1.89767e-05 
         550      30.7903     0.999873  0.000915282 -1.89092e-05 
         550      30.9606     0.999873    0.0009153 -1.88477e-05 
         550      31.1315     0.999873  0.000915163 -1.87913e-05 
         550      31.3028     0.999873  0.000914828 -1.87372e-05 
         550      31.4745     0.999874  0.000915072 -1.86585e-05 
         550      31.6468     0.999875   0.00091522 -1.85578e-05 
         550      31.8194     0.999876   0.00091528 -1.84369e-05 
         550      31.9926     0.999876   0.00091527 -1.82971e-05 
         550      32.1662     0.999876  0.000915215 -1.81406e-05 
         550      32.3404     0.999877  0.000915141 -1.79694e-05 
         550      32.5149     0.999877  0.000915079 -1.77867e-05 
         550        32.69     0.999878   0.00091506 -1.75954e-05 
         550      32.8655     0.999878  0.000914971 -1.75899e-05 
         550      33.0414     0.999879  0.000914934 -1.75928e-05 
         550       33.218     0.999879  0.000914962 -1.75554e-05 
         550      33.3948      0.99988  0.000915027 -1.74893e-05 
         550      33.5723     0.999881  0.000915112 -1.74039e-05 
         550        33.75     0.999881  0.000915199 -1.73073e-05 
         550      33.9284     0.999882  0.000915277 -1.72053e-05 
         550      34.1073     0.999882   0.00091534 -1.71029e-05 
         550      34.2865     0.999883  0.000915383 -1.70034e-05 
         550      34.4663     0.999884  0.000915404 -1.69087e-05 
         550      34.6465     0.999884  0.000915403   -1.682e-05 
         550      34.8272     0.999885  0.000915383 -1.67373e-05 
         550      35.0083     0.999886  0.000915346   -1.666e-05 
         550        35.19     0.999886  0.000915298 -1.65868e-05 
         550      35.3721     0.999887  0.000915245 -1.65161e-05 
         550      35.5546     0.999888  0.000915192  -1.6446e-05 
         550      35.7377     0.999888  0.000915146 -1.63744e-05 
         550      35.9211     0.999889  0.000915111 -1.62993e-05 
         550      36.1052     0.999889  0.000915091 -1.62188e-05 
         550      36.2895      0.99989  0.000915091 -1.61315e-05 
         550      36.4745      0.99989  0.000915111 -1.60361e-05 
         550      36.6598     0.999891   0.00091515 -1.59323e-05 
         550      36.8457     0.999891  0.000915206 -1.58198e-05 
         550      37.0321     0.999892  0.000915273 -1.56992e-05 
         550      37.2188     0.999892  0.000915343  -1.5572e-05 
         550      37.4062     0.999893  0.000915408 -1.54397e-05 
         550      37.5938     0.999893  0.000915458 -1.53051e-05 
         550      37.7821     0.999894  0.000915484  -1.5171e-05 
         550      37.9707     0.999895  0.000915478 -1.50407e-05 
         550      38.1599     0.999895  0.000915439 -1.49177e-05 
         550      38.3496     0.999896  0.000915373 -1.48056e-05 
         550      38.5396     0.999896  0.000915299 -1.47074e-05 
         550      38.7302     0.999897  0.000915254 -1.46256e-05 
         550      38.9211     0.999897    0.0009153 -1.45614e-05 
         550      39.1127     0.999898  0.000915533 -1.45147e-05 
         550      39.3046     0.999899  0.000915485 -1.44284e-05 
         550      39.4971       0.9999  0.000915301 -1.43126e-05 
         550      39.6899       0.9999  0.000915251 -1.41985e-05 
         550      39.8833     0.999901  0.000915281 -1.40865e-05 
         550      40.0772     0.999901   0.00091535 -1.39765e-05 
         550      40.2714     0.999902  0.000915428 -1.38686e-05 
         550      40.4663     0.999902  0.000915495 -1.37624e-05 
         550      40.6615     0.999903  0.000915539 -1.36579e-05 
         550      40.8573     0.999903  0.000915557 -1.35547e-05 
         550      41.0534     0.999904  0.000915549 -1.34527e-05 
         550      41.2501     0.999905   0.00091552 -1.33515e-05 
         550      41.4473     0.999905  0.000915477 -1.32508e-05 
         550      41.6448     0.999906   0.00091543 -1.31507e-05 
         550      41.8429     0.999907  0.000915387 -1.30505e-05 
         550      42.0414     0.999907  0.000915355 -1.29504e-05 
         550      42.2405     0.999908  0.000915341 -1.28499e-05 
         550      42.4399     0.999908  0.000915346 -1.27489e-05 
         550      42.6399     0.999909  0.000915371 -1.26471e-05 
         550      42.8404     0.999909  0.000915412 -1.25443e-05 
         550      43.0412      0.99991  0.000915463 -1.24404e-05 
         550      43.2426     0.999911  0.000915519 -1.23351e-05 
         550      43.4444     0.999911  0.000915575 -1.22284e-05 
         550      43.6467     0.999913  0.000915629 -1.21203e-05 
         550      43.8494     0.999913   0.00091567 -1.20157e-05 
         550      44.0527     0.999914  0.000915686 -1.19132e-05 
         550      44.2563     0.999914  0.000915689 -1.18081e-05 
         550      44.4606     0.999914  0.000915681 -1.17011e-05 
         550      44.6653     0.999915  0.000915662  -1.1593e-05 
         550      44.8704     0.999916  0.000915634 -1.14844e-05 
         550       45.076     0.999916    0.0009156 -1.13755e-05 
         550       45.282     0.999917  0.000915565 -1.12667e-05 
         550      45.4886     0.999917  0.000915532 -1.11578e-05 
         550      45.6955     0.999918  0.000915507  -1.1049e-05 
         550       45.903     0.999919  0.000915491 -1.09398e-05 
         550      46.1111     0.999919  0.000915487   -1.083e-05 
         550      46.3194      0.99992  0.000915496 -1.07194e-05 
         550      46.5283      0.99992  0.000915516 -1.06074e-05 
         550      46.7376      0.99992  0.000915545 -1.04937e-05 
         550      46.9475     0.999921  0.000915577 -1.03779e-05 
         550      47.1577     0.999921  0.000915604 -1.02598e-05 
         550      47.3685     0.999922  0.000915621 -1.01393e-05 
         550      47.5798     0.999923  0.000915619 -1.00166e-05 
         550      47.7914     0.999924  0.000915594 -9.89229e-06 
         550      48.0037     0.999925  0.000915549 -9.76691e-06 