Variables = x, y, u, v, p

Zone, I=600, F=POINT
         700            0           -0           -0 -2.64188e-05 
         700     0.000417  0.000135866  1.36596e-11 -2.64188e-05 
         700     0.001671   0.00054444  2.19259e-10 -2.64186e-05 
         700     0.003762   0.00122572  1.11127e-09 -2.64182e-05 
         700     0.006687   0.00217874  3.51109e-09 -2.64178e-05 
         700      0.01045   0.00340479  8.57461e-09 -2.64172e-05 
         700     0.015048    0.0049029  1.77804e-08 -2.64165e-05 
         700     0.020484   0.00667404  3.29469e-08 -2.64156e-05 
         700     0.026753   0.00871659  5.61992e-08 -2.64146e-05 
         700     0.033862    0.0110328  9.00348e-08 -2.64135e-05 
         700     0.041803    0.0136202  1.37215e-07 -2.64123e-05 
         700     0.050579    0.0164795  2.00876e-07 -2.64109e-05 
         700     0.060198    0.0196136  2.84545e-07 -2.64094e-05 
         700     0.070646    0.0230177  3.91889e-07 -2.64077e-05 
         700     0.081937    0.0266965  5.27167e-07  -2.6406e-05 
         700     0.094057    0.0306454  6.94658e-07 -2.64041e-05 
         700     0.107021    0.0348692  8.99345e-07  -2.6402e-05 
         700     0.120813    0.0393628  1.14608e-06 -2.63999e-05 
         700      0.13545    0.0441316   1.4406e-06 -2.63976e-05 
         700     0.150914    0.0491697  1.78831e-06 -2.63951e-05 
         700     0.167213    0.0544797  2.19543e-06 -2.63926e-05 
         700     0.184359    0.0600655  2.66871e-06 -2.63899e-05 
         700      0.20233    0.0659198   3.2143e-06 -2.63871e-05 
         700     0.221149      0.07205  3.83996e-06 -2.63841e-05 
         700     0.240792    0.0784482  4.55227e-06  -2.6381e-05 
         700     0.261284    0.0851222  5.35989e-06 -2.63778e-05 
         700     0.282599    0.0920636  6.26973e-06 -2.63744e-05 
         700     0.304763    0.0992805  7.29136e-06 -2.63709e-05 
         700      0.32775     0.106764  8.43224e-06 -2.63673e-05 
         700     0.351587     0.114523  9.70261e-06 -2.63636e-05 
         700     0.376246     0.122548  1.11102e-05 -2.63597e-05 
         700      0.40174     0.130842  1.26654e-05 -2.63557e-05 
         700     0.428086      0.13941  1.43791e-05 -2.63515e-05 
         700     0.455252     0.148242  1.62594e-05 -2.63472e-05 
         700     0.483271     0.157347   1.8319e-05 -2.63428e-05 
         700     0.512109     0.166713   2.0566e-05 -2.63383e-05 
         700     0.541801     0.176351  2.30141e-05 -2.63336e-05 
         700     0.572311     0.186247  2.56716e-05 -2.63287e-05 
         700     0.603676     0.196413  2.85528e-05 -2.63238e-05 
         700     0.635857     0.206834  3.16663e-05 -2.63186e-05 
         700     0.668875     0.217514  3.50249e-05 -2.63133e-05 
         700     0.702748     0.228459  3.86431e-05  -2.6308e-05 
         700     0.737438     0.239653  4.25288e-05 -2.63024e-05 
         700     0.772984     0.251105  4.66986e-05 -2.62967e-05 
         700     0.809345     0.262801  5.11595e-05 -2.62908e-05 
         700     0.846564      0.27475  5.59288e-05 -2.62848e-05 
         700     0.884597     0.286935  6.10128e-05 -2.62786e-05 
         700     0.923489     0.299365  6.64297e-05 -2.62722e-05 
         700     0.963194     0.312022  7.21851e-05 -2.62657e-05 
         700      1.00376     0.324916  7.82978e-05 -2.62591e-05 
         700      1.04514     0.338025   8.4772e-05 -2.62522e-05 
         700      1.08735     0.351351  9.16222e-05 -2.62452e-05 
         700      1.13042     0.364896  9.88635e-05 -2.62379e-05 
         700      1.17431     0.378636  0.000106497 -2.62304e-05 
         700      1.21905     0.392579  0.000114541 -2.62227e-05 
         700      1.26461       0.4067  0.000122994 -2.62148e-05 
         700      1.31103     0.421005  0.000131874 -2.62068e-05 
         700      1.35826      0.43547  0.000141178 -2.61986e-05 
         700      1.40635     0.450098  0.000150926 -2.61903e-05 
         700      1.45525     0.464861  0.000161112 -2.61817e-05 
         700      1.50498     0.479755  0.000171748 -2.61723e-05 
         700      1.55558     0.494774    0.0001828  -2.6161e-05 
         700      1.60699     0.509887  0.000194328 -2.61513e-05 
         700      1.65927     0.525096  0.000206321 -2.61423e-05 
         700      1.71235     0.540366  0.000218748 -2.61333e-05 
         700      1.76629     0.555698   0.00023161 -2.61237e-05 
         700      1.82104     0.571056  0.000244886 -2.61133e-05 
         700      1.87666     0.586439  0.000258583  -2.6102e-05 
         700      1.93309     0.601807  0.000272678 -2.60897e-05 
         700      1.99034     0.617149   0.00028717 -2.60767e-05 
         700      2.04847     0.632454  0.000302057  -2.6063e-05 
         700       2.1074     0.647679  0.000317304 -2.60488e-05 
         700      2.16721      0.66282  0.000332909 -2.60345e-05 
         700      2.22781     0.677836  0.000348827   -2.602e-05 
         700      2.28928     0.692719  0.000365049 -2.60055e-05 
         700      2.35156     0.707427  0.000381522  -2.5991e-05 
         700       2.4147     0.721955  0.000398228 -2.59764e-05 
         700      2.47865     0.736257  0.000415108 -2.59615e-05 
         700      2.54347     0.750329  0.000432143 -2.59462e-05 
         700      2.60909     0.764127  0.000449271 -2.59301e-05 
         700      2.67554     0.777637   0.00046646 -2.59131e-05 
         700      2.74287     0.790843  0.000483682 -2.58948e-05 
         700        2.811     0.803706  0.000500874 -2.58752e-05 
         700         2.88     0.816219  0.000518017 -2.58541e-05 
         700      2.94979     0.828348  0.000535049 -2.58317e-05 
         700      3.02047     0.840088  0.000551947 -2.58082e-05 
         700      3.09194     0.851407  0.000568642 -2.57841e-05 
         700      3.16429     0.862302  0.000585104   -2.576e-05 
         700      3.23743     0.872747  0.000601254 -2.57366e-05 
         700       3.3114     0.882737  0.000617043 -2.57146e-05 
         700      3.38626     0.892267  0.000632418 -2.56943e-05 
         700      3.46191      0.90132  0.000647309 -2.56755e-05 
         700      3.53844       0.9099  0.000661705 -2.56571e-05 
         700      3.61576     0.917995  0.000675604 -2.56362e-05 
         700      3.69396     0.925616   0.00068912 -2.56075e-05 
         700      3.77295     0.932754  0.000702186 -2.55827e-05 
         700      3.85283     0.939424  0.000714286 -2.55847e-05 
         700      3.93349     0.945627  0.000725854 -2.55684e-05 
         700      4.01504     0.951378   0.00073685 -2.55393e-05 
         700      4.09737     0.956682  0.000747225 -2.55017e-05 
         700      4.18054     0.961557  0.000756965 -2.54587e-05 
         700       4.2646     0.966021  0.000766067 -2.54128e-05 
         700      4.34945     0.970086  0.000774523 -2.53658e-05 
         700      4.43518     0.973775  0.000782359  -2.5319e-05 
         700      4.52169     0.977105  0.000789589 -2.52738e-05 
         700      4.60909     0.980099  0.000796253 -2.52315e-05 
         700      4.69728     0.982775  0.000802182 -2.52164e-05 
         700      4.78636     0.985158  0.000807565 -2.51928e-05 
         700      4.87621     0.987267  0.000812433 -2.51621e-05 
         700      4.96691     0.989126  0.000816817 -2.51266e-05 
         700      5.05849     0.990755  0.000820748 -2.50883e-05 
         700      5.15086     0.992174  0.000824248 -2.50488e-05 
         700      5.24411     0.993405  0.000827351 -2.50091e-05 
         700      5.33815     0.994465  0.000830081 -2.49698e-05 
         700      5.43308     0.995374  0.000832469 -2.49312e-05 
         700      5.52879     0.996148  0.000834541 -2.48934e-05 
         700       5.6254     0.996804  0.000836327 -2.48561e-05 
         700      5.72278     0.997356  0.000837852 -2.48189e-05 
         700      5.82099     0.997818  0.000839143 -2.47812e-05 
         700      5.92011     0.998202  0.000840229 -2.47426e-05 
         700         6.02     0.998519  0.000841133 -2.47024e-05 
         700      6.12078      0.99878  0.000841881 -2.46601e-05 
         700      6.22234     0.998992  0.000842497 -2.46152e-05 
         700       6.3248     0.999164  0.000843002 -2.45675e-05 
         700      6.42803     0.999303  0.000843415 -2.45169e-05 
         700      6.53216     0.999413  0.000843756 -2.44635e-05 
         700      6.63707     0.999501  0.000844037 -2.44078e-05 
         700      6.74287      0.99957  0.000844269 -2.43503e-05 
         700      6.84945     0.999624  0.000844461 -2.42921e-05 
         700      6.95686     0.999666  0.000844617 -2.42342e-05 
         700      7.06517     0.999698  0.000844739  -2.4178e-05 
         700      7.17426     0.999722  0.000844829 -2.41251e-05 
         700      7.28424     0.999741   0.00084489 -2.40769e-05 
         700        7.395     0.999756  0.000844933  -2.4035e-05 
         700      7.50666     0.999766  0.000844979 -2.40004e-05 
         700      7.61908     0.999774  0.000845023 -2.39668e-05 
         700      7.73241      0.99978  0.000845054 -2.39381e-05 
         700      7.84651     0.999785  0.000845084  -2.3908e-05 
         700      7.96145     0.999788  0.000845113 -2.38732e-05 
         700      8.07729     0.999791  0.000845137 -2.38324e-05 
         700      8.19389     0.999792  0.000845151  -2.3786e-05 
         700      8.31141     0.999794   0.00084515 -2.37354e-05 
         700      8.42969     0.999795  0.000845135 -2.36826e-05 
         700      8.54887     0.999796  0.000845108 -2.36296e-05 
         700      8.66882     0.999796  0.000845076  -2.3578e-05 
         700      8.78968     0.999797  0.000845048 -2.35287e-05 
         700      8.91131     0.999797  0.000845031 -2.34816e-05 
         700      9.03384     0.999798  0.000845032 -2.34359e-05 
         700      9.15713     0.999799  0.000845055 -2.33898e-05 
         700      9.28126     0.999799    0.0008451 -2.33412e-05 
         700       9.4063       0.9998  0.000845161  -2.3288e-05 
         700       9.5321       0.9998   0.00084523 -2.32292e-05 
         700      9.65882       0.9998  0.000845291 -2.31658e-05 
         700      9.78629     0.999801  0.000845326 -2.31028e-05 
         700      9.91468     0.999801  0.000845313 -2.30507e-05 
         700      10.0438     0.999801  0.000845223 -2.30284e-05 
         700      10.1739     0.999802  0.000845021 -2.30657e-05 
         700      10.3047     0.999802  0.000845034 -2.29417e-05 
         700      10.4363     0.999802  0.000845094 -2.28225e-05 
         700      10.5689     0.999803  0.000845212 -2.27366e-05 
         700      10.7022     0.999803  0.000845377 -2.26714e-05 
         700      10.8365     0.999804  0.000845442  -2.2613e-05 
         700      10.9715     0.999804   0.00084504 -2.25439e-05 
         700      11.1074     0.999805    0.0008452 -2.25669e-05 
         700      11.2441     0.999806   0.00084542  -2.2603e-05 
         700      11.3816     0.999806  0.000845324 -2.25987e-05 
         700        11.52     0.999806   0.00084516  -2.2566e-05 
         700      11.6592     0.999807  0.000845051 -2.25141e-05 
         700      11.7993     0.999807  0.000845035 -2.24498e-05 
         700      11.9401     0.999807  0.000845104 -2.23782e-05 
         700      12.0819     0.999808   0.00084522 -2.23027e-05 
         700      12.2244     0.999808  0.000845343 -2.22256e-05 
         700      12.3678     0.999809  0.000845436 -2.21484e-05 
         700       12.512     0.999809  0.000845478 -2.20719e-05 
         700      12.6571      0.99981  0.000845462 -2.19965e-05 
         700       12.803      0.99981  0.000845395 -2.19227e-05 
         700      12.9498     0.999811  0.000845297 -2.18502e-05 
         700      13.0973     0.999811  0.000845193 -2.17793e-05 
         700      13.2457     0.999812  0.000845108 -2.17101e-05 
         700       13.395     0.999812  0.000845061 -2.16424e-05 
         700       13.545     0.999813  0.000845061 -2.15765e-05 
         700       13.696     0.999813  0.000845109 -2.15137e-05 
         700      13.8477     0.999813  0.000845281 -2.14677e-05 
         700      14.0004     0.999814  0.000845435  -2.1418e-05 
         700      14.1537     0.999814  0.000845531 -2.13626e-05 
         700      14.3081     0.999815  0.000845543    -2.13e-05 
         700      14.4631     0.999816  0.000845471 -2.12308e-05 
         700       14.619     0.999816  0.000845349 -2.11584e-05 
         700      14.7758     0.999817  0.000845244 -2.10885e-05 
         700      14.9334     0.999817  0.000845228 -2.10293e-05 
         700      15.0919     0.999817  0.000845328 -2.09888e-05 
         700      15.2511     0.999818  0.000845438 -2.09717e-05 
         700      15.4113     0.999818  0.000845166 -2.09736e-05 
         700      15.5722     0.999819  0.000845277 -2.08621e-05 
         700      15.7341     0.999819  0.000845874 -2.06699e-05 
         700      15.8966      0.99982  0.000845709 -2.05136e-05 
         700      16.0602     0.999821  0.000845274  -2.0431e-05 
         700      16.2244     0.999821  0.000845176  -2.0385e-05 
         700      16.3895     0.999822  0.000845285  -2.0367e-05 
         700      16.5555     0.999823  0.000845505 -2.03704e-05 
         700      16.7223     0.999823  0.000845703 -2.03678e-05 
         700        16.89     0.999823  0.000845697 -2.03012e-05 
         700      17.0584     0.999824  0.000845664 -2.02287e-05 
         700      17.2278     0.999824   0.00084562 -2.01515e-05 
         700      17.3979     0.999825  0.000845577 -2.00706e-05 
         700      17.5689     0.999825  0.000845537 -1.99874e-05 
         700      17.7407     0.999826  0.000845505 -1.99032e-05 
         700      17.9133     0.999826  0.000845479  -1.9819e-05 
         700      18.0869     0.999827  0.000845458 -1.97358e-05 
         700      18.2611     0.999828  0.000845443 -1.96546e-05 
         700      18.4364     0.999828  0.000845433 -1.95757e-05 
         700      18.6123     0.999829  0.000845427 -1.94996e-05 
         700      18.7892     0.999829  0.000845427 -1.94262e-05 
         700      18.9669      0.99983  0.000845432 -1.93555e-05 
         700      19.1454     0.999831  0.000845443  -1.9287e-05 
         700      19.3247     0.999831  0.000845459 -1.92201e-05 
         700       19.505     0.999832  0.000845481  -1.9154e-05 
         700      19.6859     0.999832  0.000845507 -1.90879e-05 
         700      19.8677     0.999833  0.000845535 -1.90208e-05 
         700      20.0505     0.999833  0.000845562  -1.8952e-05 
         700       20.234     0.999834  0.000845585 -1.88807e-05 
         700      20.4184     0.999835  0.000845602 -1.88062e-05 
         700      20.6035     0.999835   0.00084561 -1.87282e-05 
         700      20.7896     0.999836  0.000845608 -1.86465e-05 
         700      20.9765     0.999836  0.000845595 -1.85615e-05 
         700      21.1642     0.999837  0.000845576 -1.84735e-05 
         700      21.3527     0.999837  0.000845555 -1.83837e-05 
         700      21.5421     0.999838  0.000845539 -1.82932e-05 
         700      21.7323     0.999839  0.000845537 -1.82036e-05 
         700      21.9233     0.999839  0.000845558 -1.81168e-05 
         700      22.1153      0.99984  0.000845609 -1.80345e-05 
         700       22.308     0.999841  0.000845689 -1.79587e-05 
         700      22.5016     0.999841  0.000845785 -1.78908e-05 
         700      22.6959     0.999842  0.000845863 -1.78316e-05 
         700      22.8912     0.999843  0.000845858  -1.7781e-05 
         700      23.0872     0.999844   0.00084566 -1.77374e-05 
         700      23.2841     0.999843  0.000845879 -1.76494e-05 
         700      23.4819     0.999844   0.00084583 -1.75685e-05 
         700      23.6804     0.999845  0.000845687 -1.74963e-05 
         700      23.8799     0.999846  0.000845576 -1.74287e-05 
         700      24.0801     0.999847  0.000845536 -1.73621e-05 
         700      24.2813     0.999847  0.000845558 -1.72931e-05 
         700      24.4831     0.999848  0.000845612 -1.72195e-05 
         700       24.686     0.999848  0.000845667 -1.71395e-05 
         700      24.8895     0.999849    0.0008457 -1.70522e-05 
         700       25.094     0.999849  0.000845703 -1.69576e-05 
         700      25.2992      0.99985  0.000845679 -1.68566e-05 
         700      25.5052     0.999851  0.000845641 -1.67509e-05 
         700      25.7123     0.999851  0.000845608  -1.6643e-05 
         700        25.92     0.999852  0.000845595 -1.65362e-05 
         700      26.1287     0.999853  0.000845613 -1.64339e-05 
         700       26.338     0.999854  0.000845667 -1.63403e-05 
         700      26.5484     0.999854  0.000845756 -1.62592e-05 
         700      26.7595     0.999855  0.000845872 -1.61941e-05 
         700      26.9715     0.999855  0.000846013 -1.61477e-05 
         700      27.1842     0.999856  0.000846185   -1.612e-05 
         700      27.3978     0.999856  0.000845878 -1.59544e-05 
         700      27.6123     0.999857   0.00084569   -1.582e-05 
         700      27.8276     0.999858  0.000845618 -1.57106e-05 
         700      28.0438     0.999859  0.000845642 -1.56201e-05 
         700      28.2607      0.99986  0.000845736 -1.55426e-05 
         700      28.4786     0.999861  0.000845864 -1.54727e-05 
         700      28.6972     0.999862  0.000845987 -1.54055e-05 
         700      28.9167     0.999862  0.000846068 -1.53365e-05 
         700       29.137     0.999862  0.000846075 -1.52624e-05 
         700      29.3582     0.999862  0.000845992 -1.51803e-05 
         700      29.5801     0.999863  0.000845826 -1.50891e-05 
         700      29.8029     0.999863  0.000845617 -1.49885e-05 
         700      30.0266     0.999864  0.000845451 -1.48797e-05 
         700      30.2511     0.999866  0.000845471 -1.47655e-05 
         700      30.4765     0.999868  0.000845525 -1.46626e-05 
         700      30.7026     0.999867  0.000845439 -1.45903e-05 
         700      30.9297     0.999868  0.000845559 -1.45262e-05 
         700      31.1574     0.999869  0.000845763 -1.44624e-05 
         700      31.3862      0.99987  0.000845969 -1.43935e-05 
         700      31.6156     0.999871  0.000846124 -1.43159e-05 
         700      31.8459     0.999872  0.000846202 -1.42279e-05 
         700      32.0772     0.999872  0.000846199 -1.41293e-05 
         700      32.3092     0.999873  0.000846128 -1.40209e-05 
         700      32.5421     0.999873  0.000846008 -1.39045e-05 
         700      32.7757     0.999874  0.000845869 -1.37826e-05 
         700      33.0103     0.999874  0.000845735 -1.36577e-05 
         700      33.2456     0.999875   0.00084563 -1.35329e-05 
         700      33.4819     0.999875   0.00084557 -1.34105e-05 
         700      33.7189     0.999876  0.000845565 -1.32929e-05 
         700      33.9567     0.999877  0.000845612 -1.31818e-05 
         700      34.1955     0.999878  0.000845702 -1.30779e-05 
         700       34.435     0.999879  0.000845819 -1.29817e-05 
         700      34.6754      0.99988  0.000845942 -1.28922e-05 
         700      34.9166     0.999881  0.000846048 -1.28079e-05 
         700      35.1587     0.999882  0.000846118 -1.27267e-05 
         700      35.4016     0.999883  0.000846139 -1.26456e-05 
         700      35.6454     0.999884  0.000846109 -1.25614e-05 
         700      35.8899     0.999885  0.000846036 -1.24712e-05 
         700      36.1353     0.999885  0.000845943 -1.23723e-05 
         700      36.3815     0.999886  0.000845864 -1.22634e-05 
         700      36.6285     0.999886  0.000845838 -1.21449e-05 
         700      36.8765     0.999887  0.000845898 -1.20199e-05 
         700      37.1252     0.999888  0.000846054 -1.18957e-05 
         700      37.3749     0.999889  0.000846267 -1.17842e-05 
         700      37.6252      0.99989  0.000846416  -1.1704e-05 
         700      37.8765      0.99989   0.00084625 -1.16819e-05 
         700      38.1286     0.999891  0.000846014 -1.16017e-05 
         700      38.3816     0.999892   0.00084615  -1.1416e-05 
         700      38.6353     0.999893  0.000846122 -1.12802e-05 
         700      38.8898     0.999894  0.000846034  -1.1174e-05 
         700      39.1453     0.999895  0.000845972 -1.10819e-05 
         700      39.4015     0.999895  0.000845997 -1.09929e-05 
         700      39.6587     0.999895  0.000846117 -1.08996e-05 
         700      39.9166     0.999896  0.000846259 -1.07991e-05 
         700      40.1754     0.999897  0.000846231 -1.06925e-05 
         700       40.435     0.999898  0.000845672 -1.05861e-05 
         700      40.6955     0.999899    0.0008459 -1.05184e-05 
         700      40.9567       0.9999   0.00084623 -1.04307e-05 
         700      41.2189     0.999901  0.000846238 -1.03126e-05 
         700      41.4818     0.999902  0.000846113 -1.01744e-05 
         700      41.7456     0.999903  0.000845974 -1.00252e-05 
         700      42.0103     0.999903  0.000845879 -9.87326e-06 
         700      42.2757     0.999904  0.000845852 -9.72625e-06 
         700      42.5421     0.999905  0.000845886 -9.59063e-06 
         700      42.8091     0.999906  0.000845962 -9.47273e-06 
         700      43.0772     0.999907   0.00084605 -9.37842e-06 
         700      43.3459     0.999907  0.000846115 -9.31408e-06 
         700      43.6157     0.999908  0.000846122 -9.28664e-06 
         700      43.8861     0.999909  0.000846033 -9.30451e-06 
         700      44.1573     0.999911   0.00084581 -9.37795e-06 
         700      44.4296     0.999912  0.000845474 -9.48658e-06 
         700      44.7025     0.999912  0.000845923 -9.18493e-06 
         700      44.9764     0.999913  0.000846229 -8.92879e-06 
         700       45.251     0.999913  0.000846412 -8.71278e-06 
         700      45.5266     0.999914  0.000846496 -8.53087e-06 
         700      45.8029     0.999915  0.000846501 -8.37756e-06 
         700      46.0801     0.999916  0.000846451  -8.2471e-06 
         700      46.3581     0.999917  0.000846366 -8.13432e-06 
         700      46.6368     0.999918  0.000846266 -8.03416e-06 
         700      46.9166     0.999919  0.000846166 -7.94203e-06 
         700       47.197      0.99992  0.000846077 -7.85397e-06 
         700      47.4785      0.99992  0.000846009 -7.76638e-06 
         700      47.7606     0.999921  0.000845966 -7.67645e-06 
         700      48.0437     0.999922  0.000845947 -7.58182e-06 
         700      48.3275     0.999923  0.000845951 -7.48096e-06 
         700      48.6123     0.999924  0.000845973 -7.37281e-06 
         700      48.8978     0.999925  0.000846006 -7.25713e-06 
         700      49.1842     0.999926  0.000846046 -7.13404e-06 
         700      49.4714     0.999926  0.000846086 -7.00445e-06 
         700      49.7593     0.999927  0.000846123 -6.86952e-06 
         700      50.0483     0.999928  0.000846157 -6.73068e-06 
         700      50.3379     0.999929  0.000846189 -6.58984e-06 
         700      50.6286      0.99993  0.000846226 -6.44857e-06 
         700      50.9199     0.999931  0.000846274  -6.3086e-06 
         700      51.2122     0.999932  0.000846339  -6.1709e-06 
         700      51.5052     0.999933  0.000846424  -6.0361e-06 
         700      51.7992     0.999934  0.000846521 -5.90348e-06 
         700      52.0938     0.999935  0.000846605 -5.77132e-06 
         700      52.3893     0.999935  0.000846623 -5.63591e-06 
         700      52.6858     0.999936   0.00084648 -5.49133e-06 
         700       52.983     0.999938  0.000846494 -5.38565e-06 
         700      53.2811     0.999939  0.000846566 -5.29119e-06 
         700        53.58      0.99994  0.000846596 -5.19464e-06 
         700      53.8798      0.99994  0.000846582  -5.0948e-06 
         700      54.1803     0.999941   0.00084653   -4.991e-06 
         700      54.4819     0.999942  0.000846453 -4.88265e-06 
         700       54.784     0.999943  0.000846365 -4.76966e-06 
         700      55.0872     0.999944  0.000846278 -4.65189e-06 
         700      55.3911     0.999945  0.000846204 -4.52968e-06 
         700      55.6957     0.999946   0.00084615 -4.40336e-06 
         700      56.0014     0.999948  0.000846121 -4.27338e-06 
         700      56.3078     0.999949  0.000846116  -4.1406e-06 
         700      56.6152      0.99995  0.000846132 -4.00566e-06 
         700      56.9232     0.999951  0.000846165 -3.86964e-06 
         700      57.2323     0.999952  0.000846207 -3.73335e-06 
         700      57.5419     0.999953  0.000846251 -3.59793e-06 
         700      57.8527     0.999953   0.00084629 -3.46419e-06 
         700       58.164     0.999954  0.000846318 -3.33313e-06 
         700      58.4762     0.999955  0.000846332 -3.20534e-06 
         700      58.7895     0.999956   0.00084633 -3.08108e-06 
         700      59.1034     0.999957  0.000846312 -2.96039e-06 
         700      59.4183     0.999958   0.00084628 -2.84241e-06 
         700      59.7338     0.999959  0.000846234 -2.72574e-06 
         700      60.0504      0.99996  0.000846174 -2.60762e-06 
         700      60.3676     0.999962  0.000846093 -2.48421e-06 
         700      60.6858     0.999963  0.000846119  -2.3626e-06 
         700      61.0047     0.999963  0.000846233 -2.24303e-06 
         700      61.3245     0.999964  0.000846291 -2.11298e-06 
         700      61.6452     0.999965  0.000846325 -1.97453e-06 
         700      61.9666     0.999965  0.000846353 -1.82996e-06 
         700      62.2891     0.999966  0.000846386 -1.68095e-06 
         700      62.6121     0.999967  0.000846424 -1.52914e-06 
         700      62.9362     0.999967  0.000846461 -1.37533e-06 
         700       63.261     0.999968  0.000846483 -1.22025e-06 
         700      63.5868     0.999969  0.000846476 -1.06398e-06 
         700      63.9132     0.999971  0.000846425 -9.07009e-07 
         700      64.2406     0.999972  0.000846322 -7.49907e-07 
         700      64.5687     0.999973  0.000846173 -5.94802e-07 
         700      64.8976     0.999975  0.000846003 -4.45594e-07 
         700      65.2276     0.999976  0.000845876 -3.09419e-07 
         700      65.5582     0.999976    0.0008459 -1.98324e-07 
         700      65.8898     0.999975  0.000846252 -1.30516e-07 
         700      66.2221     0.999976  0.000846274  3.31841e-08 
         700      66.5554     0.999977  0.000846146  2.25482e-07 
         700      66.8893     0.999979  0.000846141  3.87878e-07 
         700      67.2243      0.99998  0.000846213  5.28536e-07 
         700      67.5599     0.999982  0.000846322  6.53927e-07 
         700      67.8964     0.999983  0.000846439  7.69627e-07 
         700      68.2338     0.999984  0.000846542  8.80187e-07 
         700       68.572     0.999985  0.000846616  9.89102e-07 
         700      68.9111     0.999986  0.000846654  1.09938e-06 
         700      69.2509     0.999987  0.000846653  1.21315e-06 
         700      69.5917     0.999988  0.000846617  1.33223e-06 
         700      69.9332      0.99999  0.000846552   1.4577e-06 
         700      70.2757     0.999991  0.000846466  1.59051e-06 
         700      70.6188     0.999992  0.000846371  1.73095e-06 
         700       70.963     0.999993  0.000846278   1.8793e-06 
         700      71.3078     0.999994  0.000846198  2.03518e-06 
         700      71.6535     0.999995  0.000846139  2.19822e-06 
         700      72.0001     0.999996   0.00084611  2.36776e-06 
         700      72.3475     0.999997  0.000846113  2.54258e-06 
         700      72.6958     0.999998  0.000846148  2.72162e-06 
         700      73.0448     0.999999  0.000846209  2.90309e-06 
         700      73.3948     0.999999  0.000846286  3.08538e-06 
         700      73.7455     0.999999   0.00084636   3.2661e-06 
         700      74.0972            1   0.00084634   3.3538e-06 
         700      74.4495            1  0.000846353  3.44953e-06 
         700      74.8027            1  0.000846384  3.55362e-06 
         700      75.1569            1  0.000846424  3.66621e-06 
         700      75.5117      1.00001  0.000846465  3.78704e-06 
         700      75.8676      1.00001  0.000846501  3.91585e-06 
         700      76.2241      1.00001  0.000846531  4.05186e-06 
         700      76.5817      1.00001  0.000846552   4.1944e-06 
         700      76.9399      1.00001  0.000846562  4.34232e-06 
         700      77.2991      1.00001   0.00084656  4.49474e-06 
         700      77.6589      1.00001  0.000846544   4.6504e-06 
         700      78.0198      1.00001  0.000846514  4.80852e-06 
         700      78.3814      1.00001  0.000846469  4.96812e-06 
         700      78.7437      1.00002  0.000846408  5.12873e-06 
         700      79.1071      1.00002  0.000846333   5.2902e-06 
         700      79.4712      1.00002  0.000846249  5.45248e-06 
         700      79.8363      1.00002   0.00084616  5.61626e-06 
         700       80.202      1.00002  0.000846074  5.78224e-06 
         700      80.5687      1.00002     0.000846  5.95179e-06 
         700      80.9361      1.00002   0.00084595  6.12614e-06 
         700      81.3045      1.00002  0.000845931  6.30694e-06 
         700      81.6736      1.00002  0.000845947  6.49524e-06 
         700      82.0435      1.00002  0.000845995  6.69191e-06 
         700      82.4144      1.00003  0.000846052  6.89695e-06 
         700       82.786      1.00003  0.000846074  7.10858e-06 
         700      83.1586      1.00003   0.00084598  7.32352e-06 
         700      83.5318      1.00003  0.000846156  7.45033e-06 
         700      83.9061      1.00003  0.000846395  7.53499e-06 
         700       84.281      1.00003  0.000846448  7.64692e-06 
         700      84.6569      1.00003  0.000846413  7.78376e-06 
         700      85.0335      1.00003  0.000846342  7.94147e-06 
         700      85.4109      1.00003  0.000846253  8.11493e-06 