Variables = x, y, u, v, p

Zone, I=400, F=POINT
         100            0   2.3317e-18 -1.31218e-29 -0.000147342 
         100     0.000942  0.000474816  2.81232e-10 -0.000147341 
         100     0.003768   0.00189927  4.49986e-09  -0.00014734 
         100     0.008478   0.00427338  2.27815e-08 -0.000147337 
         100     0.015075    0.0075987  7.20341e-08 -0.000147332 
         100     0.023553    0.0118722  1.75853e-07 -0.000147327 
         100     0.033916    0.0170961  3.64678e-07  -0.00014732 
         100     0.046163    0.0232697  6.75673e-07 -0.000147313 
         100       0.0603    0.0303963  1.15302e-06 -0.000147304 
         100     0.076315    0.0384698  1.84707e-06 -0.000147294 
         100     0.094215    0.0474936  2.81556e-06 -0.000147282 
         100     0.113999    0.0574671  4.12278e-06  -0.00014727 
         100     0.135675     0.068394  5.84046e-06 -0.000147256 
         100     0.159228    0.0802662  8.04524e-06 -0.000147241 
         100     0.184664    0.0930857  1.08219e-05 -0.000147224 
         100     0.211985     0.106852  1.42616e-05 -0.000147207 
         100     0.241201     0.121569  1.84632e-05 -0.000147188 
         100      0.27229     0.137221  2.35268e-05 -0.000147168 
         100     0.305263      0.15381  2.95628e-05 -0.000147147 
         100     0.340135     0.171339  3.66886e-05 -0.000147124 
         100     0.376877     0.189784  4.50167e-05   -0.0001471 
         100     0.415503     0.209145  5.46718e-05 -0.000147074 
         100     0.456013     0.229407  6.57783e-05 -0.000147046 
         100     0.498424     0.250565  7.84665e-05 -0.000147017 
         100     0.542703     0.272582  9.28511e-05 -0.000146986 
         100     0.588866     0.295442  0.000109058 -0.000146953 
         100     0.636912     0.319115  0.000127203 -0.000146917 
         100     0.686864     0.343577  0.000147404 -0.000146879 
         100     0.738679     0.368766  0.000169741 -0.000146837 
         100     0.792379     0.394643  0.000194307 -0.000146793 
         100     0.847962      0.42115  0.000221167 -0.000146745 
         100     0.905453     0.448233  0.000250383 -0.000146692 
         100     0.964806     0.475794  0.000281955 -0.000146635 
         100      1.02604     0.503759  0.000315895 -0.000146573 
         100      1.08919     0.532044  0.000352191 -0.000146504 
         100      1.15419     0.560522  0.000390758  -0.00014643 
         100      1.22108     0.589089   0.00043152 -0.000146348 
         100      1.28985     0.617619  0.000474356 -0.000146259 
         100      1.36054      0.64599  0.000519126 -0.000146161 
         100      1.43308     0.674035  0.000565599 -0.000146055 
         100      1.50751     0.701617  0.000613549 -0.000145939 
         100      1.58382     0.728581  0.000662697 -0.000145813 
         100      1.66204     0.754778  0.000712722 -0.000145676 
         100      1.74212     0.780032  0.000763218 -0.000145527 
         100      1.82409     0.804203  0.000813786 -0.000145368 
         100      1.90793     0.827146  0.000863971 -0.000145196 
         100       1.9937      0.84874  0.000913314 -0.000145012 
         100      2.08131     0.868857  0.000961293 -0.000144815 
         100      2.17081     0.887416   0.00100746 -0.000144606 
         100      2.26223     0.904361   0.00105138 -0.000144385 
         100       2.3555     0.919645   0.00109262 -0.000144152 
         100      2.45065      0.93327   0.00113088 -0.000143906 
         100      2.54769     0.945262   0.00116589 -0.000143649 
         100      2.64665      0.95568   0.00119749 -0.000143381 
         100      2.74746     0.964596   0.00122556 -0.000143103 
         100      2.85014     0.972116   0.00125014 -0.000142814 
         100      2.95472     0.978361   0.00127131 -0.000142516 
         100      3.06122     0.983466   0.00128924 -0.000142209 
         100      3.16956     0.987565   0.00130418 -0.000141893 
         100      3.27979     0.990799   0.00131639 -0.000141569 
         100       3.3919     0.993305   0.00132621 -0.000141238 
         100      3.50594      0.99521   0.00133395   -0.0001409 
         100      3.62181     0.996629   0.00133992 -0.000140554 
         100      3.73958     0.997664   0.00134446 -0.000140202 
         100      3.85927     0.998403   0.00134784 -0.000139843 
         100       3.9808     0.998919   0.00135031 -0.000139479 
         100      4.10422     0.999271   0.00135209 -0.000139108 
         100      4.22952     0.999506   0.00135335 -0.000138731 
         100      4.35675     0.999659   0.00135425 -0.000138348 
         100      4.48582     0.999756   0.00135488 -0.000137961 
         100      4.61677     0.999816   0.00135533 -0.000137566 
         100      4.74961     0.999852   0.00135567 -0.000137166 
         100      4.88438     0.999873   0.00135592  -0.00013676 
         100      5.02099     0.999885   0.00135613 -0.000136347 
         100      5.15948     0.999891   0.00135631 -0.000135929 
         100      5.29985     0.999895   0.00135647 -0.000135505 
         100      5.44217     0.999897   0.00135663 -0.000135071 
         100      5.58631     0.999898   0.00135678  -0.00013464 
         100      5.73233     0.999898   0.00135692 -0.000134196 
         100      5.88024     0.999899   0.00135707 -0.000133747 
         100       6.0301     0.999899   0.00135721 -0.000133293 
         100      6.18178     0.999899   0.00135736 -0.000132834 
         100      6.33534     0.999899   0.00135751  -0.00013237 
         100      6.49085     0.999899   0.00135765 -0.000131899 
         100      6.64818     0.999899   0.00135779 -0.000131423 
         100      6.80739     0.999899   0.00135795 -0.000130941 
         100      6.96849       0.9999   0.00135809 -0.000130453 
         100      7.13154       0.9999   0.00135823 -0.000129958 
         100      7.29641       0.9999   0.00135839 -0.000129456 
         100      7.46316       0.9999   0.00135853 -0.000128952 
         100       7.6318       0.9999   0.00135868  -0.00012844 
         100      7.80239       0.9999   0.00135882 -0.000127922 
         100      7.97479       0.9999   0.00135899   -0.0001274 
         100      8.14908       0.9999   0.00135913 -0.000126873 
         100      8.32526       0.9999   0.00135926 -0.000126338 
         100      8.50338       0.9999    0.0013594 -0.000125796 
         100      8.68333       0.9999   0.00135956 -0.000125249 
         100      8.86515     0.999901   0.00135971 -0.000124698 
         100      9.04894     0.999901   0.00135985 -0.000124143 
         100      9.23453     0.999901   0.00135997 -0.000123582 
         100      9.42201     0.999901   0.00136013  -0.00012301 
         100      9.61137     0.999901    0.0013603 -0.000122433 
         100      9.80269     0.999901   0.00136044 -0.000121853 
         100      9.99583     0.999901   0.00136056  -0.00012126 
         100      10.1908     0.999901    0.0013607 -0.000120673 
         100      10.3877     0.999901   0.00136085 -0.000120082 
         100      10.5866     0.999902     0.001361 -0.000119478 
         100      10.7873     0.999902   0.00136114 -0.000118869 
         100      10.9898     0.999902   0.00136126 -0.000118255 
         100      11.1943     0.999902   0.00136137 -0.000117635 
         100      11.4007     0.999902   0.00136151 -0.000117015 
         100      11.6089     0.999902   0.00136166 -0.000116385 
         100       11.819     0.999902    0.0013618 -0.000115745 
         100       12.031     0.999902   0.00136192 -0.000115099 
         100      12.2449     0.999902   0.00136204 -0.000114447 
         100      12.4606     0.999903   0.00136219 -0.000113792 
         100      12.6782     0.999903   0.00136234 -0.000113137 
         100      12.8978     0.999903   0.00136245 -0.000112481 
         100      13.1192     0.999903   0.00136251 -0.000111825 
         100      13.3425     0.999903   0.00136264 -0.000111164 
         100      13.5677     0.999903   0.00136277 -0.000110487 
         100      13.7948     0.999903   0.00136294 -0.000109783 
         100      14.0237     0.999903   0.00136306 -0.000109065 
         100      14.2546     0.999904   0.00136314 -0.000108384 
         100      14.4873     0.999904   0.00136326 -0.000107697 
         100      14.7219     0.999904   0.00136341 -0.000106978 
         100      14.9584     0.999904   0.00136349  -0.00010629 
         100      15.1968     0.999904   0.00136356  -0.00010559 
         100      15.4371     0.999904   0.00136366 -0.000104868 
         100      15.6792     0.999905   0.00136377 -0.000104131 
         100      15.9232     0.999905   0.00136389 -0.000103389 
         100      16.1691     0.999905     0.001364 -0.000102646 
         100       16.417     0.999905   0.00136406 -0.000101902 
         100      16.6666     0.999905   0.00136417 -0.000101159 
         100      16.9182     0.999906   0.00136424 -0.000100424 
         100      17.1716     0.999905   0.00136436 -9.96835e-05 
         100       17.427     0.999905   0.00136444 -9.89371e-05 
         100      17.6842     0.999906   0.00136449 -9.81823e-05 
         100      17.9433     0.999906   0.00136457 -9.74153e-05 
         100      18.2042     0.999906   0.00136468 -9.66357e-05 
         100      18.4672     0.999906   0.00136479 -9.58476e-05 
         100      18.7319     0.999906   0.00136488 -9.50587e-05 
         100      18.9985     0.999907   0.00136491 -9.42749e-05 
         100       19.267     0.999907   0.00136493 -9.34963e-05 
         100      19.5375     0.999907   0.00136497 -9.27079e-05 
         100      19.8098     0.999907   0.00136514 -9.18724e-05 
         100       20.084     0.999907   0.00136517 -9.11329e-05 
         100      20.3601     0.999907   0.00136522  -9.0312e-05 
         100       20.638     0.999908   0.00136517 -8.94622e-05 
         100      20.9178     0.999908   0.00136545 -8.86851e-05 
         100      21.1995     0.999908   0.00136526 -8.78597e-05 
         100      21.4832     0.999908   0.00136543 -8.70572e-05 
         100      21.7687     0.999908   0.00136551 -8.62495e-05 
         100       22.056     0.999909   0.00136548 -8.54236e-05 
         100      22.3452     0.999909   0.00136544 -8.45805e-05 
         100      22.6365     0.999909   0.00136548  -8.3732e-05 
         100      22.9295     0.999909   0.00136557 -8.28971e-05 
         100      23.2243      0.99991   0.00136563 -8.20509e-05 
         100      23.5211      0.99991   0.00136564 -8.11983e-05 
         100      23.8199      0.99991    0.0013656 -8.03471e-05 
         100      24.1204     0.999911   0.00136557 -7.94998e-05 
         100      24.4228     0.999911   0.00136564 -7.86527e-05 
         100      24.7272      0.99991   0.00136576 -7.77988e-05 
         100      25.0334     0.999911   0.00136578 -7.69335e-05 
         100      25.3415     0.999911   0.00136558 -7.60607e-05 
         100      25.6514     0.999912   0.00136571 -7.52057e-05 
         100      25.9634     0.999912   0.00136552 -7.43653e-05 
         100      26.2771     0.999912   0.00136562 -7.35058e-05 
         100      26.5927     0.999912   0.00136573 -7.26255e-05 
         100      26.9102     0.999912   0.00136568  -7.1726e-05 
         100      27.2297     0.999913   0.00136557 -7.08119e-05 
         100       27.551     0.999913   0.00136549 -6.98928e-05 
         100      27.8741     0.999914   0.00136551 -6.89812e-05 
         100      28.1991     0.999914   0.00136558 -6.80954e-05 
         100      28.5262     0.999914   0.00136558 -6.72597e-05 
         100       28.855     0.999914   0.00136544 -6.64553e-05 
         100      29.1856     0.999914   0.00136551 -6.54492e-05 
         100      29.5183     0.999914   0.00136538 -6.45388e-05 
         100      29.8528     0.999915   0.00136523  -6.3653e-05 
         100      30.1891     0.999916   0.00136512 -6.27604e-05 
         100      30.5273     0.999916   0.00136506 -6.18578e-05 
         100      30.8676     0.999916   0.00136509 -6.09555e-05 
         100      31.2096     0.999916   0.00136519 -6.00695e-05 
         100      31.5534     0.999915     0.001365 -5.92146e-05 
         100      31.8992     0.999917   0.00136483 -5.82569e-05 
         100      32.2469     0.999916   0.00136474 -5.72425e-05 
         100      32.5965     0.999917    0.0013647 -5.62689e-05 
         100      32.9479     0.999919   0.00136472  -5.5304e-05 
         100      33.3012     0.999919   0.00136475 -5.43652e-05 
         100      33.6565     0.999918   0.00136472  -5.3569e-05 
         100      34.0135     0.999918    0.0013646 -5.28029e-05 
         100      34.3725     0.999919   0.00136438 -5.19948e-05 
         100      34.7334      0.99992   0.00136409  -5.1111e-05 
         100      35.0962     0.999921    0.0013638 -5.01504e-05 
         100      35.4608     0.999922    0.0013636 -4.91343e-05 
         100      35.8272     0.999922   0.00136354 -4.80979e-05 
         100      36.1957     0.999922   0.00136361 -4.70783e-05 
         100       36.566     0.999922   0.00136376 -4.61069e-05 
         100      36.9381     0.999922   0.00136387 -4.51978e-05 
         100      37.3121     0.999923   0.00136382 -4.43442e-05 
         100      37.6882     0.999924   0.00136354 -4.35163e-05 
         100       38.066     0.999924   0.00136306 -4.26678e-05 
         100      38.4456     0.999925   0.00136253 -4.17468e-05 
         100      38.8272     0.999924   0.00136223 -4.07197e-05 
         100      39.2108     0.999924   0.00136244  -3.9606e-05 
         100      39.5961     0.999924    0.0013631 -3.85299e-05 
         100      39.9833     0.999925   0.00136338 -3.77853e-05 
         100      40.3724     0.999928   0.00136074 -3.79257e-05 
         100      40.7635     0.999928   0.00136192 -3.60658e-05 
         100      41.1564     0.999928   0.00136296 -3.46174e-05 
         100      41.5511     0.999928    0.0013623 -3.36528e-05 
         100      41.9479     0.999928   0.00136151 -3.29854e-05 
         100      42.3464     0.999929   0.00136118  -3.2302e-05 
         100      42.7468     0.999929   0.00136118 -3.14877e-05 
         100      43.1491      0.99993   0.00136124 -3.05374e-05 
         100      43.5534      0.99993   0.00136115  -2.9499e-05 
         100      43.9595      0.99993   0.00136088 -2.84359e-05 
         100      44.3674     0.999931   0.00136054 -2.73982e-05 
         100      44.7772     0.999931   0.00136027 -2.64124e-05 
         100      45.1891     0.999932   0.00136012 -2.54782e-05 
         100      45.6027     0.999933   0.00136008  -2.4576e-05 
         100      46.0181     0.999933   0.00136002 -2.36764e-05 
         100      46.4355     0.999934   0.00135978 -2.27545e-05 
         100      46.8549     0.999934   0.00135933 -2.17999e-05 
         100       47.276     0.999934   0.00135883 -2.08236e-05 
         100       47.699     0.999934   0.00135859 -1.98485e-05 
         100      48.1241     0.999935   0.00135889 -1.88877e-05 
         100      48.5508     0.999936   0.00135927 -1.78994e-05 
         100      48.9795     0.999937    0.0013572 -1.67095e-05 
         100        49.41     0.999938   0.00135874 -1.59816e-05 
         100      49.8426     0.999936   0.00135822 -1.49737e-05 
         100      50.2769     0.999937   0.00135749  -1.3967e-05 
         100      50.7131     0.999938   0.00135711 -1.30807e-05 
         100      51.1512      0.99994     0.001357 -1.22966e-05 
         100      51.5914      0.99994   0.00135702 -1.14684e-05 
         100      52.0332      0.99994   0.00135733 -1.03119e-05 
         100      52.4769     0.999941   0.00135687 -9.62949e-06 
         100      52.9225     0.999942   0.00135628 -8.88985e-06 
         100      53.3702     0.999943   0.00135591 -7.89596e-06 
         100      53.8196     0.999943   0.00135568 -6.79057e-06 
         100      54.2709     0.999944   0.00135554 -5.67536e-06 
         100      54.7242     0.999946    0.0013554 -4.61523e-06 
         100      55.1792     0.999946    0.0013552 -3.64339e-06 
         100      55.6362     0.999947   0.00135489 -2.76317e-06 
         100       56.095     0.999947    0.0013545 -1.95529e-06 
         100      56.5558     0.999947   0.00135414 -1.18393e-06 
         100      57.0184     0.999947   0.00135394 -4.06344e-07 
         100      57.4829     0.999949   0.00135391   4.1851e-07 
         100      57.9492     0.999953   0.00135361  1.31593e-06 
         100      58.4176     0.999951   0.00135351  2.36666e-06 
         100      58.8877      0.99995   0.00135319  3.48902e-06 
         100      59.3597      0.99995   0.00135277  4.55884e-06 
         100      59.8336     0.999952    0.0013524  5.54329e-06 
         100      60.3096     0.999953   0.00135207  6.46072e-06 
         100      60.7872     0.999955   0.00135177  7.35157e-06 
         100      61.2667     0.999956   0.00135149  8.25888e-06 
         100      61.7484     0.999957   0.00135123  9.21169e-06 
         100      62.2317     0.999956   0.00135102   1.0215e-05 
         100      62.7168     0.999956   0.00135086  1.12498e-05 
         100      63.2039     0.999956   0.00135075  1.22767e-05 
         100      63.6931     0.999956   0.00135062  1.32487e-05 
         100      64.1839     0.999957   0.00135038  1.41298e-05 
         100      64.6766     0.999958   0.00134997  1.49247e-05 
         100      65.1712      0.99996   0.00134943  1.57132e-05 
         100      65.6679     0.999962   0.00134907  1.66948e-05 
         100      66.1663     0.999962   0.00134968  1.82397e-05 
         100      66.6665     0.999964   0.00134859  1.87767e-05 
         100      67.1687     0.999964   0.00134787  1.93803e-05 
         100      67.6729     0.999962   0.00134813  2.04184e-05 
         100      68.1788     0.999963   0.00134798  2.14152e-05 
         100      68.6866     0.999966   0.00134755  2.24632e-05 
         100      69.1963     0.999966   0.00134756  2.35955e-05 
         100      69.7081     0.999966   0.00134736  2.45742e-05 
         100      70.2215     0.999967     0.001347  2.54612e-05 
         100      70.7368     0.999968   0.00134656  2.63107e-05 
         100      71.2543     0.999969    0.0013461  2.71632e-05 
         100      71.7734      0.99997   0.00134568  2.80432e-05 
         100      72.2943     0.999971   0.00134533  2.89615e-05 
         100      72.8172     0.999972   0.00134507  2.99154e-05 
         100      73.3422     0.999973   0.00134489  3.08935e-05 
         100      73.8688     0.999974   0.00134477  3.18779e-05 
         100      74.3973     0.999975   0.00134465  3.28515e-05 
         100      74.9277     0.999976   0.00134449  3.38013e-05 
         100      75.4602     0.999976   0.00134425  3.47225e-05 
         100      75.9944     0.999976   0.00134389  3.56201e-05 
         100      76.5305     0.999977   0.00134343  3.65111e-05 
         100      77.0684     0.999977   0.00134289   3.7421e-05 
         100      77.6084     0.999978   0.00134237   3.8378e-05 
         100      78.1502     0.999979   0.00134195  3.94005e-05 
         100      78.6937     0.999981   0.00134173  4.04834e-05 
         100      79.2394     0.999983   0.00134174  4.15729e-05 
         100      79.7868     0.999984   0.00134183  4.25347e-05 
         100      80.3361     0.999984    0.0013416  4.31159e-05 
         100      80.8872     0.999984   0.00134129  4.38059e-05 
         100      81.4404     0.999984   0.00134077  4.48676e-05 
         100      81.9953     0.999989   0.00134108  4.54843e-05 
         100      82.5521     0.999987   0.00133921  4.65997e-05 
         100      83.1108     0.999986   0.00133861  4.79221e-05 
         100      83.6715     0.999987   0.00133908  4.90773e-05 
         100       84.234     0.999989   0.00133955  4.99305e-05 
         100      84.7983      0.99999   0.00133993   5.0413e-05 
         100      85.3645     0.999991    0.0013393  5.12807e-05 
         100      85.9328     0.999992   0.00133789  5.26342e-05 
         100      86.5028     0.999993   0.00133703  5.37452e-05 
         100      87.0747     0.999993    0.0013366  5.47222e-05 
         100      87.6486     0.999994   0.00133643  5.56521e-05 
         100      88.2243     0.999994   0.00133637  5.65886e-05 
         100      88.8018     0.999995    0.0013363  5.75536e-05 
         100      89.3812     0.999997   0.00133614  5.85413e-05 
         100      89.9627     0.999998   0.00133589  5.95296e-05 
         100      90.5458     0.999999   0.00133557  6.04913e-05 
         100      91.1309            1    0.0013352  6.14102e-05 
         100      91.7178            1   0.00133482  6.22888e-05 
         100      92.3069            1   0.00133444  6.31542e-05 
         100      92.8976            1   0.00133405  6.40505e-05 
         100      93.4901            1   0.00133362  6.50238e-05 
         100      94.0846      1.00001   0.00133317  6.60853e-05 
         100      94.6812      1.00001   0.00133281  6.71562e-05 
         100      95.2794      1.00001   0.00133276  6.80434e-05 
         100      95.8796      1.00001   0.00133263  6.89562e-05 
         100      96.4818      1.00001   0.00133236  6.99382e-05 
         100      97.0857      1.00001   0.00133197   7.0968e-05 
         100      97.6915      1.00001   0.00133153  7.20233e-05 
         100      98.2991      1.00001   0.00133109  7.30829e-05 
         100      98.9089      1.00002   0.00133067  7.41295e-05 
         100      99.5203      1.00002   0.00133031  7.51494e-05 
         100      100.134      1.00002      0.00133  7.61364e-05 
         100      100.749      1.00002   0.00132973  7.70894e-05 
         100      101.366      1.00002   0.00132949  7.80136e-05 
         100      101.985      1.00002   0.00132923  7.89171e-05 
         100      102.606      1.00002   0.00132895  7.98129e-05 
         100      103.229      1.00002   0.00132862  8.07149e-05 
         100      103.854      1.00002   0.00132823  8.16372e-05 
         100       104.48      1.00002   0.00132778  8.25908e-05 
         100      105.108      1.00002   0.00132729  8.35841e-05 
         100      105.739      1.00002   0.00132678  8.46197e-05 
         100      106.371      1.00002   0.00132629  8.56947e-05 
         100      107.005      1.00003   0.00132584  8.67977e-05 
         100      107.641      1.00003   0.00132547  8.79125e-05 
         100      108.279      1.00003   0.00132519  8.90176e-05 
         100      108.919      1.00003     0.001325  9.00875e-05 
         100       109.56      1.00003   0.00132488  9.10996e-05 
         100      110.204      1.00003   0.00132477  9.20374e-05 
         100      110.849      1.00003   0.00132461  9.28996e-05 
         100      111.497      1.00003   0.00132433  9.37082e-05 
         100      112.146      1.00003   0.00132387  9.45228e-05 
         100      112.797      1.00003   0.00132325  9.54545e-05 
         100       113.45      1.00004   0.00132256  9.66855e-05 
         100      114.105      1.00004   0.00132152   9.7456e-05 
         100      114.761      1.00004   0.00132073  9.80123e-05 
         100       115.42      1.00004   0.00132061  9.88076e-05 
         100      116.081      1.00004   0.00132142  9.99129e-05 
         100      116.743      1.00004   0.00132296  0.000101317 
         100      117.407      1.00005   0.00132122  0.000102278 
         100      118.073      1.00005   0.00132015  0.000103449 
         100      118.741      1.00005   0.00131948  0.000104719 
         100      119.411      1.00005   0.00131905  0.000106008 
         100      120.083      1.00005   0.00131872  0.000107266 
         100      120.757      1.00005   0.00131842  0.000108464 
         100      121.432      1.00005   0.00131812  0.000109588 
         100       122.11      1.00005   0.00131778   0.00011064 
         100      122.789      1.00005   0.00131741  0.000111629 
         100       123.47      1.00005   0.00131701  0.000112571 
         100      124.153      1.00006   0.00131659  0.000113482 
         100      124.838      1.00006   0.00131615  0.000114383 
         100      125.525      1.00006   0.00131572  0.000115291 
         100      126.214      1.00006   0.00131529  0.000116221 
         100      126.905      1.00006   0.00131487  0.000117184 
         100      127.597      1.00006   0.00131446  0.000118188 
         100      128.292      1.00006   0.00131406  0.000119236 
         100      128.988      1.00006   0.00131367  0.000120326 
         100      129.686      1.00006   0.00131327  0.000121453 
         100      130.386      1.00006   0.00131287   0.00012261 
         100      131.088      1.00006   0.00131246  0.000123786 
         100      131.792      1.00006   0.00131203  0.000124967 
         100      132.497      1.00007   0.00131159  0.000126142 
         100      133.205      1.00007   0.00131113    0.0001273 
         100      133.915      1.00007   0.00131066   0.00012843 
         100      134.626      1.00007   0.00131019  0.000129526 
         100      135.339      1.00008    0.0013097  0.000130584 
         100      136.054      1.00008   0.00130922  0.000131607 
         100      136.771      1.00008   0.00130874  0.000132601 
         100       137.49      1.00008   0.00130827  0.000133577 
         100      138.211      1.00008   0.00130779  0.000134549 
         100      138.934      1.00008   0.00130731  0.000135538 
         100      139.658      1.00008   0.00130682   0.00013656 
         100      140.385      1.00008    0.0013063  0.000137635 
         100      141.113      1.00008   0.00130574  0.000138774 
         100      141.843      1.00008   0.00130515   0.00013998 
         100      142.575      1.00008   0.00130452  0.000141239 
         100      143.309      1.00008   0.00130389  0.000142515 
         100      144.045      1.00008   0.00130333   0.00014374 
         100      144.783      1.00009   0.00130296  0.000144804 
         100      145.523      1.00009   0.00130296  0.000145542 
         100      146.264       1.0001   0.00130335  0.000145932 
         100      147.007      1.00011   0.00130164   0.00014791 
         100      147.753      1.00011   0.00130088  0.000149429 
         100        148.5       1.0001   0.00130062  0.000150639 
         100      149.249      1.00007   0.00130054  0.000151653 
         100          150            1   0.00130048  0.000152551 
