Variables = x, y, u, v, p

Zone, I=800, F=POINT
         400            0            0            0 -5.55597e-05 
         400     0.000234  9.04389e-05  7.18477e-12 -5.55596e-05 
         400     0.000939  0.000362915  1.15705e-10 -5.55594e-05 
         400     0.002113  0.000816656  5.85907e-10 -5.55591e-05 
         400     0.003759   0.00145282  1.85429e-09 -5.55587e-05 
         400     0.005872   0.00226948  4.52486e-09 -5.55581e-05 
         400     0.008457   0.00326856  9.38568e-09 -5.55575e-05 
         400      0.01151   0.00444852  1.73854e-08 -5.55567e-05 
         400     0.015036   0.00581129  2.96687e-08 -5.55557e-05 
         400     0.019031   0.00735533   4.7529e-08 -5.55547e-05 
         400     0.023493   0.00907986  7.24291e-08 -5.55535e-05 
         400     0.028429    0.0109876  1.06062e-07 -5.55522e-05 
         400     0.033831    0.0130754  1.50199e-07 -5.55508e-05 
         400     0.039706    0.0153461  2.06896e-07 -5.55493e-05 
         400     0.046047    0.0177968  2.78255e-07 -5.55476e-05 
         400     0.052863    0.0204312  3.66729e-07 -5.55458e-05 
         400      0.06015    0.0232476  4.74803e-07 -5.55439e-05 
         400       0.0679    0.0262429  6.05039e-07 -5.55419e-05 
         400     0.076126    0.0294222  7.60519e-07 -5.55397e-05 
         400     0.084816    0.0327808  9.44062e-07 -5.55374e-05 
         400     0.093982    0.0363233  1.15914e-06  -5.5535e-05 
         400     0.103611    0.0400448  1.40882e-06 -5.55325e-05 
         400     0.113718    0.0439509  1.69708e-06 -5.55298e-05 
         400     0.124286    0.0480352  2.02716e-06 -5.55271e-05 
         400     0.135333    0.0523045  2.40353e-06 -5.55242e-05 
         400      0.14685    0.0567553     2.83e-06 -5.55211e-05 
         400     0.158827    0.0613838  3.31042e-06  -5.5518e-05 
         400     0.171284    0.0661976  3.85002e-06 -5.55147e-05 
         400     0.184201    0.0711889  4.45254e-06 -5.55113e-05 
         400     0.197599    0.0763658  5.12371e-06 -5.55078e-05 
         400     0.211455    0.0817193  5.86733e-06 -5.55042e-05 
         400     0.225792    0.0872582  6.68974e-06 -5.55004e-05 
         400       0.2406    0.0929785  7.59571e-06 -5.54965e-05 
         400     0.255865    0.0988747  8.58975e-06 -5.54925e-05 
         400     0.271613     0.104957  9.67917e-06 -5.54883e-05 
         400     0.287818     0.111214   1.0868e-05 -5.54841e-05 
         400     0.304506     0.117657  1.21639e-05 -5.54797e-05 
         400      0.32165     0.124275  1.35711e-05 -5.54752e-05 
         400     0.339278     0.131078  1.50979e-05 -5.54705e-05 
         400     0.357377     0.138061  1.67499e-05 -5.54658e-05 
         400      0.37593     0.145216   1.8532e-05 -5.54609e-05 
         400     0.394968     0.152557  2.04536e-05 -5.54558e-05 
         400     0.414461      0.16007  2.25188e-05 -5.54507e-05 
         400      0.43444     0.167766  2.47377e-05 -5.54454e-05 
         400     0.454872     0.175634  2.71138e-05   -5.544e-05 
         400     0.475791     0.183684  2.96582e-05 -5.54345e-05 
         400     0.497163     0.191904  3.23742e-05 -5.54288e-05 
         400     0.519021     0.200304  3.52734e-05  -5.5423e-05 
         400      0.54135     0.208879  3.83615e-05  -5.5417e-05 
         400     0.564131      0.21762  4.16432e-05  -5.5411e-05 
         400       0.5874      0.22654  4.51316e-05 -5.54048e-05 
         400     0.611121     0.235624  4.88291e-05 -5.53984e-05 
         400      0.63533     0.244883   5.2749e-05 -5.53919e-05 
         400      0.65999     0.254303   5.6893e-05 -5.53853e-05 
         400     0.685139     0.263896  6.12755e-05 -5.53785e-05 
         400     0.710759     0.273654  6.59015e-05 -5.53715e-05 
         400     0.736828     0.283565  7.07745e-05 -5.53645e-05 
         400     0.763387     0.293644  7.59102e-05 -5.53572e-05 
         400     0.790396     0.303873  8.13083e-05 -5.53498e-05 
         400     0.817896     0.314265  8.69848e-05 -5.53423e-05 
         400     0.845843       0.3248  9.29379e-05 -5.53346e-05 
         400     0.874283     0.335493  9.91849e-05 -5.53267e-05 
         400      0.90317     0.346323  0.000105723 -5.53187e-05 
         400     0.932551     0.357304  0.000112569 -5.53104e-05 
         400     0.962401     0.368422  0.000119725  -5.5302e-05 
         400     0.992697     0.379666  0.000127192 -5.52934e-05 
         400      1.02349     0.391049  0.000134986 -5.52846e-05 
         400      1.05472     0.402547  0.000143102 -5.52755e-05 
         400      1.08645     0.414174  0.000151558 -5.52663e-05 
         400      1.11863     0.425907  0.000160345 -5.52569e-05 
         400       1.1513     0.437757  0.000169481 -5.52472e-05 
         400      1.18444      0.44971  0.000178963 -5.52374e-05 
         400      1.21802     0.461749  0.000188786 -5.52273e-05 
         400      1.25211     0.473886  0.000198969 -5.52169e-05 
         400      1.28663     0.486096  0.000209496 -5.52063e-05 
         400      1.32165     0.498389  0.000220386 -5.51954e-05 
         400      1.35712     0.510738  0.000231621 -5.51842e-05 
         400      1.39308     0.523154  0.000243218 -5.51726e-05 
         400      1.42951     0.535619  0.000255166 -5.51608e-05 
         400      1.46638     0.548112  0.000267453 -5.51487e-05 
         400      1.50375     0.560645  0.000280092 -5.51363e-05 
         400      1.54156     0.573187  0.000293062 -5.51239e-05 
         400      1.57987     0.585747  0.000306376 -5.51109e-05 
         400      1.61863     0.598294  0.000320005 -5.50974e-05 
         400      1.65788     0.610838  0.000333962 -5.50834e-05 
         400      1.69757     0.623345  0.000348214 -5.50689e-05 
         400      1.73776     0.635825  0.000362771 -5.50541e-05 
         400      1.77842     0.648255  0.000377611 -5.50389e-05 
         400      1.81952     0.660612  0.000392705 -5.50233e-05 
         400      1.86113     0.672904  0.000408064 -5.50072e-05 
         400      1.90316     0.685096  0.000423645 -5.49908e-05 
         400      1.94571     0.697197  0.000439455  -5.4974e-05 
         400      1.98869     0.709172  0.000455449 -5.49567e-05 
         400      2.03217     0.721028  0.000471631 -5.49389e-05 
         400      2.07612     0.732741  0.000487965 -5.49205e-05 
         400      2.12051      0.74429  0.000504415 -5.49017e-05 
         400       2.1654     0.755677  0.000520982 -5.48822e-05 
         400      2.21073     0.766873  0.000537612 -5.48621e-05 
         400      2.25656     0.777882  0.000554305 -5.48414e-05 
         400      2.30283     0.788675  0.000571005   -5.482e-05 
         400       2.3496     0.799254  0.000587711  -5.4798e-05 
         400      2.39685     0.809601  0.000604377 -5.47753e-05 
         400      2.44452     0.819695  0.000620962 -5.47519e-05 
         400      2.49271     0.829542  0.000637459 -5.47279e-05 
         400      2.54132     0.839116  0.000653812 -5.47032e-05 
         400      2.59044     0.848423  0.000670016 -5.46779e-05 
         400         2.64     0.857438  0.000686014  -5.4652e-05 
         400      2.69006     0.866169    0.0007018 -5.46255e-05 
         400      2.74056     0.874594  0.000717321 -5.45984e-05 
         400      2.79156     0.882721  0.000732572 -5.45706e-05 
         400      2.84304     0.890538  0.000747512 -5.45423e-05 
         400      2.89494     0.898034  0.000762102 -5.45134e-05 
         400      2.94735     0.905219  0.000776342 -5.44839e-05 
         400       3.0002      0.91208  0.000790183 -5.44537e-05 
         400      3.05355     0.918625  0.000803626 -5.44229e-05 
         400      3.10733     0.924846  0.000816628 -5.43914e-05 
         400      3.16163     0.930754  0.000829193 -5.43591e-05 
         400      3.21639     0.936346  0.000841292 -5.43261e-05 
         400      3.27158     0.941621  0.000852903 -5.42924e-05 
         400      3.32729     0.946593  0.000864032 -5.42579e-05 
         400      3.38342     0.951259  0.000874653 -5.42227e-05 
         400      3.44007     0.955633  0.000884774  -5.4187e-05 
         400      3.49714     0.959716  0.000894377 -5.41509e-05 
         400      3.55472     0.963521  0.000903475 -5.41149e-05 
         400      3.61273     0.967053  0.000912058 -5.40794e-05 
         400      3.67125     0.970327  0.000920146 -5.40452e-05 
         400      3.73025     0.973349  0.000927744 -5.40133e-05 
         400      3.78967     0.976129  0.000934831 -5.39773e-05 
         400      3.84961     0.978682  0.000941442 -5.39369e-05 
         400      3.90996     0.981015  0.000947589 -5.38957e-05 
         400      3.97084     0.983143  0.000953289 -5.38541e-05 
         400      4.03214     0.985076  0.000958548 -5.38124e-05 
         400      4.09395     0.986828  0.000963386 -5.37706e-05 
         400      4.15624     0.988409  0.000967818 -5.37285e-05 
         400      4.21895      0.98983  0.000971859 -5.36861e-05 
         400      4.28217     0.991104  0.000975535 -5.36432e-05 
         400      4.34582     0.992241  0.000978862 -5.35996e-05 
         400      4.40998     0.993254  0.000981867 -5.35552e-05 
         400      4.47457      0.99415  0.000984566 -5.35099e-05 
         400      4.53968     0.994943  0.000986987 -5.34637e-05 
         400      4.60525      0.99564  0.000989149 -5.34167e-05 
         400      4.67125      0.99625   0.00099107 -5.33691e-05 
         400      4.73777     0.996783  0.000992774  -5.3321e-05 
         400       4.8047     0.997245  0.000994277 -5.32727e-05 
         400      4.87216     0.997646    0.0009956 -5.32245e-05 
         400      4.94003     0.997991  0.000996757 -5.31769e-05 
         400      5.00843     0.998288  0.000997766   -5.313e-05 
         400      5.07724     0.998541   0.00099864 -5.30841e-05 
         400      5.14658     0.998757  0.000999395 -5.30392e-05 
         400      5.21639      0.99894   0.00100004 -5.29955e-05 
         400      5.28661     0.999093    0.0010006 -5.29526e-05 
         400      5.35736     0.999223   0.00100107 -5.29102e-05 
         400      5.42852     0.999331   0.00100146 -5.28676e-05 
         400      5.50021     0.999421    0.0010018 -5.28238e-05 
         400      5.57231     0.999495   0.00100208 -5.27777e-05 
         400      5.64493     0.999556   0.00100231 -5.27277e-05 
         400      5.71803     0.999607    0.0010025 -5.26721e-05 
         400      5.79154     0.999648   0.00100264  -5.2609e-05 
         400      5.86558     0.999681   0.00100282  -5.2541e-05 
         400      5.94003     0.999708   0.00100298 -5.24749e-05 
         400      6.01501      0.99973   0.00100311 -5.24126e-05 
         400       6.0904     0.999747   0.00100318 -5.23565e-05 
         400      6.16632     0.999761   0.00100316 -5.23095e-05 
         400      6.24271     0.999772   0.00100319 -5.22687e-05 
         400       6.3195     0.999781    0.0010033   -5.222e-05 
         400      6.39683     0.999787   0.00100337 -5.21668e-05 
         400      6.47457     0.999793    0.0010034  -5.2112e-05 
         400      6.55284     0.999797   0.00100339 -5.20573e-05 
         400      6.63152       0.9998   0.00100335 -5.20042e-05 
         400      6.71073     0.999803   0.00100337 -5.19577e-05 
         400      6.79034     0.999805   0.00100338 -5.19105e-05 
         400      6.87049     0.999806   0.00100338 -5.18594e-05 
         400      6.95111     0.999808   0.00100339  -5.1804e-05 
         400      7.03214     0.999808   0.00100339 -5.17452e-05 
         400       7.1137     0.999809   0.00100341 -5.16844e-05 
         400      7.19566      0.99981   0.00100344  -5.1623e-05 
         400      7.27816      0.99981   0.00100347 -5.15626e-05 
         400      7.36106     0.999811   0.00100351 -5.15041e-05 
         400      7.44451     0.999811   0.00100353 -5.14478e-05 
         400      7.52842     0.999812   0.00100356 -5.13938e-05 
         400      7.61273     0.999812   0.00100357 -5.13414e-05 
         400      7.69758     0.999812   0.00100358 -5.12894e-05 
         400      7.78283     0.999813   0.00100357 -5.12367e-05 
         400      7.86862     0.999813   0.00100356 -5.11821e-05 
         400      7.95481     0.999813   0.00100356 -5.11246e-05 
         400      8.04155     0.999813   0.00100355 -5.10635e-05 
         400      8.12868     0.999814   0.00100355 -5.09992e-05 
         400      8.21635     0.999814   0.00100356 -5.09322e-05 
         400      8.30449     0.999814   0.00100358 -5.08642e-05 
         400      8.39303     0.999814   0.00100359 -5.07972e-05 
         400      8.48211     0.999815    0.0010036 -5.07333e-05 
         400      8.57159     0.999815    0.0010036 -5.06742e-05 
         400      8.66161     0.999815   0.00100359 -5.06196e-05 
         400      8.75203     0.999815   0.00100356 -5.05665e-05 
         400      8.84299     0.999816   0.00100356 -5.05071e-05 
         400      8.93443     0.999816   0.00100365 -5.04258e-05 
         400      9.02626     0.999816   0.00100362 -5.03746e-05 
         400      9.11863     0.999817   0.00100358 -5.03199e-05 
         400      9.21139     0.999817    0.0010036 -5.02467e-05 
         400      9.30471     0.999817   0.00100364 -5.01692e-05 
         400      9.39841     0.999817   0.00100367 -5.00957e-05 
         400      9.49267     0.999818    0.0010037 -5.00293e-05 
         400      9.58739     0.999818   0.00100371 -4.99699e-05 
         400      9.68251     0.999818   0.00100371 -4.99154e-05 
         400      9.77817     0.999819    0.0010037 -4.98624e-05 
         400      9.87422     0.999819   0.00100369 -4.98077e-05 
         400      9.97083     0.999819   0.00100369 -4.97479e-05 
         400      10.0678     0.999819   0.00100368  -4.9681e-05 
         400      10.1654      0.99982   0.00100369 -4.96062e-05 
         400      10.2633      0.99982    0.0010037 -4.95242e-05 
         400      10.3618      0.99982   0.00100373  -4.9437e-05 
         400      10.4607      0.99982   0.00100378  -4.9349e-05 
         400      10.5601     0.999821   0.00100383 -4.92659e-05 
         400        10.66     0.999821   0.00100386 -4.91955e-05 
         400      10.7603     0.999821   0.00100383 -4.91413e-05 
         400      10.8611     0.999822   0.00100387 -4.90673e-05 
         400      10.9623     0.999822   0.00100387 -4.90092e-05 
         400      11.0641     0.999822   0.00100385 -4.89599e-05 
         400      11.1663     0.999823   0.00100382 -4.89132e-05 
         400       11.269     0.999823    0.0010038 -4.88639e-05 
         400      11.3721     0.999823   0.00100378 -4.88079e-05 
         400      11.4757     0.999823   0.00100379 -4.87424e-05 
         400      11.5798     0.999824   0.00100382 -4.86661e-05 
         400      11.6844     0.999824   0.00100386 -4.85795e-05 
         400      11.7894     0.999824   0.00100392 -4.84853e-05 
         400       11.895     0.999825   0.00100397  -4.8389e-05 
         400      12.0009     0.999825   0.00100401 -4.82995e-05 
         400      12.1073     0.999825     0.001004 -4.82293e-05 
         400      12.2142     0.999825   0.00100395 -4.81759e-05 
         400      12.3216     0.999826   0.00100401 -4.80622e-05 
         400      12.4294     0.999826     0.001004 -4.79772e-05 
         400      12.5378     0.999826   0.00100396 -4.79087e-05 
         400      12.6465     0.999827   0.00100393 -4.78477e-05 
         400      12.7558     0.999827   0.00100392 -4.77882e-05 
         400      12.8656     0.999827   0.00100392 -4.77263e-05 
         400      12.9757     0.999828   0.00100394   -4.766e-05 
         400      13.0864     0.999828   0.00100397 -4.75884e-05 
         400      13.1975     0.999828   0.00100401 -4.75119e-05 
         400      13.3092     0.999829   0.00100406 -4.74313e-05 
         400      13.4212     0.999829   0.00100409 -4.73479e-05 
         400      13.5338     0.999829   0.00100412 -4.72628e-05 
         400      13.6468      0.99983   0.00100413 -4.71775e-05 
         400      13.7603      0.99983   0.00100414 -4.70931e-05 
         400      13.8743      0.99983   0.00100413 -4.70102e-05 
         400      13.9886     0.999831   0.00100412 -4.69294e-05 
         400      14.1036     0.999831   0.00100411 -4.68505e-05 
         400      14.2189     0.999831   0.00100409 -4.67734e-05 
         400      14.3348     0.999832   0.00100407 -4.66975e-05 
         400       14.451     0.999832   0.00100407 -4.66221e-05 
         400      14.5678     0.999832   0.00100406 -4.65461e-05 
         400      14.6851     0.999833   0.00100407 -4.64688e-05 
         400      14.8028     0.999833   0.00100409 -4.63894e-05 
         400       14.921     0.999833   0.00100411 -4.63072e-05 
         400      15.0396     0.999834   0.00100413 -4.62223e-05 
         400      15.1588     0.999834   0.00100415 -4.61346e-05 
         400      15.2783     0.999834   0.00100417 -4.60448e-05 
         400      15.3984     0.999835   0.00100419  -4.5954e-05 
         400       15.519     0.999835   0.00100421 -4.58635e-05 
         400        15.64     0.999835   0.00100422 -4.57749e-05 
         400      15.7615     0.999836   0.00100423 -4.56897e-05 
         400      15.8834     0.999836   0.00100425  -4.5609e-05 
         400      16.0058     0.999836   0.00100428 -4.55328e-05 
         400      16.1286     0.999837   0.00100432 -4.54621e-05 
         400       16.252     0.999837   0.00100433 -4.53972e-05 
         400      16.3759     0.999838   0.00100432 -4.53208e-05 
         400      16.5002     0.999838   0.00100432  -4.5209e-05 
         400       16.625     0.999838   0.00100438 -4.50242e-05 
         400      16.7501     0.999838   0.00100437 -4.48729e-05 
         400      16.8759     0.999839   0.00100417 -4.49207e-05 
         400       17.002     0.999839   0.00100412 -4.48361e-05 
         400      17.1287     0.999839    0.0010042  -4.4758e-05 
         400      17.2557      0.99984    0.0010043    -4.47e-05 
         400      17.3834     0.999841   0.00100433 -4.46244e-05 
         400      17.5115     0.999841   0.00100433 -4.45376e-05 
         400      17.6399     0.999841   0.00100433 -4.44441e-05 
         400       17.769     0.999842   0.00100432 -4.43474e-05 
         400      17.8984     0.999842   0.00100433   -4.425e-05 
         400      18.0284     0.999842   0.00100434 -4.41532e-05 
         400      18.1587     0.999843   0.00100437  -4.4058e-05 
         400      18.2896     0.999843   0.00100439 -4.39645e-05 
         400       18.421     0.999844   0.00100442 -4.38729e-05 
         400      18.5528     0.999844   0.00100445 -4.37828e-05 
         400      18.6851     0.999844   0.00100448 -4.36935e-05 
         400      18.8178     0.999845    0.0010045 -4.36046e-05 
         400      18.9511     0.999845   0.00100451 -4.35155e-05 
         400      19.0847     0.999846   0.00100452 -4.34257e-05 
         400      19.2189     0.999846   0.00100453 -4.33347e-05 
         400      19.3535     0.999846   0.00100453 -4.32424e-05 
         400      19.4886     0.999847   0.00100453 -4.31484e-05 
         400      19.6242     0.999847   0.00100454 -4.30529e-05 
         400      19.7602     0.999848   0.00100454  -4.2956e-05 
         400      19.8968     0.999848   0.00100454 -4.28579e-05 
         400      20.0337     0.999848   0.00100455 -4.27591e-05 
         400      20.1712     0.999849   0.00100456 -4.26596e-05 
         400      20.3091     0.999849   0.00100456 -4.25603e-05 
         400      20.4475      0.99985   0.00100457 -4.24611e-05 
         400      20.5864      0.99985   0.00100457 -4.23626e-05 
         400      20.7257      0.99985   0.00100457  -4.2265e-05 
         400      20.8655     0.999851   0.00100458 -4.21683e-05 
         400      21.0058     0.999851   0.00100457 -4.20727e-05 
         400      21.1465     0.999851   0.00100458 -4.19778e-05 
         400      21.2877     0.999852   0.00100458 -4.18835e-05 
         400      21.4294     0.999852   0.00100459 -4.17894e-05 
         400      21.5716     0.999853   0.00100462 -4.16951e-05 
         400      21.7142     0.999853   0.00100465 -4.16005e-05 
         400      21.8573     0.999853   0.00100468 -4.15054e-05 
         400      22.0008     0.999854    0.0010047 -4.14101e-05 
         400      22.1449     0.999854   0.00100469 -4.13036e-05 
         400      22.2893     0.999855   0.00100469 -4.11999e-05 
         400      22.4344     0.999855   0.00100469 -4.10973e-05 
         400      22.5797     0.999856    0.0010047 -4.09948e-05 
         400      22.7257     0.999856   0.00100471 -4.08918e-05 
         400      22.8721     0.999856   0.00100472 -4.07881e-05 
         400      23.0189     0.999857   0.00100473 -4.06839e-05 
         400      23.1663     0.999857   0.00100475 -4.05791e-05 
         400       23.314     0.999858   0.00100477 -4.04743e-05 
         400      23.4623     0.999858   0.00100479 -4.03697e-05 
         400       23.611     0.999859   0.00100482 -4.02656e-05 
         400      23.7602     0.999859   0.00100485 -4.01621e-05 
         400        23.91      0.99986   0.00100487 -4.00595e-05 
         400        24.06      0.99986    0.0010049 -3.99579e-05 
         400      24.2107      0.99986   0.00100491  -3.9857e-05 
         400      24.3617     0.999861   0.00100493 -3.97568e-05 
         400      24.5133     0.999861   0.00100493 -3.96567e-05 
         400      24.6653     0.999862   0.00100493 -3.95567e-05 
         400      24.8178     0.999862   0.00100493  -3.9456e-05 
         400      24.9708     0.999863   0.00100492 -3.93542e-05 
         400      25.1242     0.999863    0.0010049 -3.92511e-05 
         400      25.2781     0.999864   0.00100489  -3.9146e-05 
         400      25.4324     0.999864   0.00100488 -3.90387e-05 
         400      25.5873     0.999864   0.00100487  -3.8929e-05 
         400      25.7426     0.999865   0.00100488  -3.8817e-05 
         400      25.8984     0.999865   0.00100489 -3.87027e-05 
         400      26.0546     0.999865   0.00100491 -3.85867e-05 
         400      26.2114     0.999866   0.00100495 -3.84696e-05 
         400      26.3686     0.999866   0.00100499 -3.83523e-05 
         400      26.5262     0.999867   0.00100503 -3.82364e-05 
         400      26.6844     0.999868   0.00100507  -3.8123e-05 
         400      26.8429     0.999868   0.00100509  -3.8014e-05 
         400       27.002     0.999869   0.00100511 -3.79111e-05 
         400      27.1615     0.999869   0.00100509 -3.78164e-05 
         400      27.3216      0.99987   0.00100506 -3.77317e-05 
         400      27.4821      0.99987   0.00100502 -3.76585e-05 
         400       27.643      0.99987   0.00100497 -3.75509e-05 
         400      27.8044     0.999871     0.001005 -3.73784e-05 
         400      27.9663     0.999871   0.00100504 -3.72373e-05 
         400      28.1287     0.999872   0.00100508 -3.71167e-05 
         400      28.2914     0.999872   0.00100511 -3.70083e-05 
         400      28.4548     0.999872   0.00100513 -3.69058e-05 
         400      28.6185     0.999873   0.00100515  -3.6805e-05 
         400      28.7828     0.999873   0.00100517 -3.67028e-05 
         400      28.9475     0.999874   0.00100518 -3.65975e-05 
         400      29.1126     0.999874   0.00100519 -3.64884e-05 
         400      29.2784     0.999875    0.0010052 -3.63753e-05 
         400      29.4444     0.999876   0.00100521 -3.62586e-05 
         400       29.611     0.999876   0.00100522 -3.61389e-05 
         400       29.778     0.999877   0.00100523 -3.60172e-05 
         400      29.9456     0.999877   0.00100524 -3.58942e-05 
         400      30.1137     0.999878   0.00100525 -3.57708e-05 
         400      30.2821     0.999878   0.00100526 -3.56479e-05 
         400      30.4511     0.999879   0.00100526 -3.55258e-05 
         400      30.6204     0.999879   0.00100526 -3.54051e-05 
         400      30.7903      0.99988   0.00100526 -3.52858e-05 
         400      30.9606      0.99988   0.00100526 -3.51681e-05 
         400      31.1315      0.99988   0.00100526 -3.50515e-05 
         400      31.3028     0.999881   0.00100526 -3.49359e-05 
         400      31.4745     0.999881   0.00100526  -3.4821e-05 
         400      31.6468     0.999882   0.00100526 -3.47061e-05 
         400      31.8194     0.999882   0.00100528 -3.45911e-05 
         400      31.9926     0.999883    0.0010053 -3.44752e-05 
         400      32.1662     0.999883   0.00100532 -3.43586e-05 
         400      32.3404     0.999884   0.00100535 -3.42408e-05 
         400      32.5149     0.999884   0.00100539 -3.41221e-05 
         400        32.69     0.999885   0.00100542 -3.40025e-05 
         400      32.8655     0.999885   0.00100545 -3.38825e-05 
         400      33.0414     0.999886   0.00100547 -3.37625e-05 
         400       33.218     0.999887   0.00100548 -3.36428e-05 
         400      33.3948     0.999887   0.00100546 -3.35238e-05 
         400      33.5723     0.999887   0.00100542 -3.34053e-05 
         400        33.75     0.999888   0.00100535 -3.32868e-05 
         400      33.9284     0.999888   0.00100528 -3.31667e-05 
         400      34.1073     0.999889   0.00100533 -3.30412e-05 
         400      34.2865      0.99989   0.00100539 -3.29083e-05 
         400      34.4663      0.99989   0.00100545 -3.27705e-05 
         400      34.6465     0.999891   0.00100549 -3.26303e-05 
         400      34.8272     0.999891   0.00100551 -3.24895e-05 
         400      35.0083     0.999892   0.00100552   -3.235e-05 
         400        35.19     0.999892   0.00100551  -3.2213e-05 
         400      35.3721     0.999893    0.0010055 -3.20793e-05 
         400      35.5546     0.999894   0.00100548 -3.19495e-05 
         400      35.7377     0.999894   0.00100546 -3.18233e-05 
         400      35.9211     0.999895   0.00100545 -3.17003e-05 
         400      36.1052     0.999895   0.00100545 -3.15793e-05 
         400      36.2895     0.999896   0.00100547 -3.14587e-05 
         400      36.4745     0.999897   0.00100551 -3.13359e-05 
         400      36.6598     0.999897   0.00100558 -3.12082e-05 
         400      36.8457     0.999898    0.0010057 -3.10716e-05 
         400      37.0321     0.999898   0.00100568 -3.09631e-05 
         400      37.2188     0.999899   0.00100568 -3.08501e-05 
         400      37.4062     0.999899    0.0010057 -3.07309e-05 
         400      37.5938     0.999899   0.00100572 -3.06055e-05 
         400      37.7821       0.9999   0.00100575 -3.04741e-05 
         400      37.9707       0.9999   0.00100576 -3.03378e-05 
         400      38.1599     0.999901   0.00100576 -3.01974e-05 
         400      38.3496     0.999901   0.00100574 -3.00542e-05 
         400      38.5396     0.999902   0.00100572 -2.99093e-05 
         400      38.7302     0.999903    0.0010057 -2.97637e-05 
         400      38.9211     0.999903   0.00100568 -2.96186e-05 
         400      39.1127     0.999904   0.00100566 -2.94745e-05 
         400      39.3046     0.999905   0.00100566 -2.93323e-05 
         400      39.4971     0.999905   0.00100568 -2.91922e-05 
         400      39.6899     0.999906   0.00100571 -2.90549e-05 
         400      39.8833     0.999906   0.00100575 -2.89202e-05 
         400      40.0772     0.999907    0.0010058 -2.87881e-05 
         400      40.2714     0.999907   0.00100584 -2.86583e-05 
         400      40.4663     0.999908   0.00100587 -2.85303e-05 
         400      40.6615     0.999908   0.00100587 -2.84032e-05 
         400      40.8573     0.999909   0.00100584 -2.82758e-05 
         400      41.0534     0.999909   0.00100578 -2.81464e-05 
         400      41.2501      0.99991    0.0010057 -2.80125e-05 
         400      41.4473     0.999911   0.00100564  -2.7871e-05 
         400      41.6448     0.999912   0.00100566 -2.77178e-05 
         400      41.8429     0.999912   0.00100587  -2.7547e-05 
         400      42.0414     0.999913   0.00100601 -2.73903e-05 
         400      42.2405     0.999913   0.00100583 -2.72717e-05 
         400      42.4399     0.999913   0.00100579 -2.71431e-05 
         400      42.6399     0.999914   0.00100583 -2.70083e-05 
         400      42.8404     0.999914   0.00100591 -2.68701e-05 
         400      43.0412     0.999915     0.001006 -2.67306e-05 
         400      43.2426     0.999916   0.00100607 -2.65908e-05 
         400      43.4444     0.999916   0.00100611 -2.64517e-05 
         400      43.6467     0.999917   0.00100612 -2.63133e-05 
         400      43.8494     0.999918   0.00100609 -2.61755e-05 
         400      44.0527     0.999918   0.00100605 -2.60379e-05 
         400      44.2563     0.999919   0.00100598 -2.59002e-05 
         400      44.4606     0.999919   0.00100591 -2.57617e-05 
         400      44.6653      0.99992   0.00100585 -2.56219e-05 
         400      44.8704      0.99992   0.00100579 -2.54805e-05 
         400       45.076     0.999921   0.00100576  -2.5337e-05 
         400       45.282     0.999921   0.00100575 -2.51914e-05 
         400      45.4886     0.999922   0.00100577 -2.50435e-05 
         400      45.6955     0.999922   0.00100581 -2.48938e-05 
         400       45.903     0.999922   0.00100588 -2.47424e-05 
         400      46.1111     0.999923   0.00100596   -2.459e-05 
         400      46.3194     0.999924   0.00100605 -2.44374e-05 
         400      46.5283     0.999924   0.00100613 -2.42852e-05 
         400      46.7376     0.999925   0.00100621 -2.41347e-05 
         400      46.9475     0.999926   0.00100628 -2.39864e-05 
         400      47.1577     0.999926   0.00100631 -2.38414e-05 
         400      47.3685     0.999927   0.00100633 -2.37002e-05 
         400      47.5798     0.999928   0.00100631 -2.35634e-05 
         400      47.7914     0.999928   0.00100627 -2.34312e-05 
         400      48.0037     0.999929   0.00100621 -2.33031e-05 