Variables = x, y, u, v, p

Zone, I=800, F=POINT
          50            0  2.53497e-18  2.26748e-29 -0.000192929 
          50     0.000234   0.00012823  4.02114e-11 -0.000192929 
          50     0.000939  0.000514563  6.47431e-10 -0.000192928 
          50     0.002113    0.0011579   3.2778e-09 -0.000192926 
          50     0.003759   0.00205988   1.0371e-08 -0.000192924 
          50     0.005872   0.00321774  2.52993e-08 -0.000192921 
          50     0.008457   0.00463423  5.24564e-08 -0.000192917 
          50      0.01151   0.00630714  9.71216e-08 -0.000192912 
          50     0.015036   0.00823918  1.65652e-07 -0.000192907 
          50     0.019031    0.0104281  2.65211e-07 -0.000192902 
          50     0.023493    0.0128729  4.03879e-07 -0.000192895 
          50     0.028429    0.0155773  5.90976e-07 -0.000192888 
          50     0.033831    0.0185369  8.36214e-07  -0.00019288 
          50     0.039706    0.0217555  1.15082e-06 -0.000192872 
          50     0.046047    0.0252292  1.54623e-06 -0.000192862 
          50     0.052863     0.028963   2.0357e-06 -0.000192853 
          50      0.06015    0.0329544  2.63262e-06 -0.000192842 
          50       0.0679    0.0371992  3.35063e-06 -0.000192831 
          50     0.076126    0.0417044  4.20616e-06 -0.000192819 
          50     0.084816    0.0464632    5.214e-06 -0.000192807 
          50     0.093982    0.0514821  6.39232e-06 -0.000192794 
          50     0.103611    0.0567539  7.75701e-06 -0.000192781 
          50     0.113718    0.0622866  9.32844e-06 -0.000192766 
          50     0.124286    0.0680707  1.11229e-05 -0.000192751 
          50     0.135333    0.0741158  1.31629e-05 -0.000192736 
          50      0.14685    0.0804167  1.54672e-05  -0.00019272 
          50     0.158827    0.0869675  1.80542e-05 -0.000192703 
          50     0.171284    0.0937788  2.09492e-05 -0.000192686 
          50     0.184201     0.100839  2.41689e-05 -0.000192668 
          50     0.197599      0.10816  2.77405e-05 -0.000192649 
          50     0.211455     0.115727  3.16796e-05 -0.000192629 
          50     0.225792     0.123552  3.60146e-05 -0.000192609 
          50       0.2406      0.13163  4.07649e-05 -0.000192588 
          50     0.255865     0.139952  4.59473e-05 -0.000192567 
          50     0.271613      0.14853  5.15921e-05 -0.000192544 
          50     0.287818     0.157349   5.7711e-05  -0.00019252 
          50     0.304506     0.166421   6.4334e-05 -0.000192496 
          50      0.32165     0.175732    7.147e-05  -0.00019247 
          50     0.339278     0.185292   7.9149e-05 -0.000192443 
          50     0.357377     0.195094  8.73831e-05 -0.000192415 
          50      0.37593     0.205126    9.618e-05 -0.000192385 
          50     0.394968     0.215402  0.000105569 -0.000192354 
          50     0.414461     0.225903  0.000115547 -0.000192321 
          50      0.43444     0.236642  0.000126141 -0.000192286 
          50     0.454872     0.247598  0.000137343 -0.000192249 
          50     0.475791     0.258786  0.000149176 -0.000192209 
          50     0.497163     0.270183  0.000161626 -0.000192167 
          50     0.519021     0.281803  0.000174712 -0.000192123 
          50      0.54135     0.293633  0.000188427 -0.000192075 
          50     0.564131     0.305658  0.000202754 -0.000192024 
          50       0.5874     0.317891  0.000217711 -0.000191969 
          50     0.611121     0.330309  0.000233267  -0.00019191 
          50      0.63533     0.342923  0.000249437 -0.000191848 
          50      0.65999     0.355709  0.000266185  -0.00019178 
          50     0.685139      0.36868  0.000283526 -0.000191708 
          50     0.710759      0.38182  0.000301437  -0.00019163 
          50     0.736828      0.39511  0.000319889 -0.000191546 
          50     0.763387     0.408564  0.000338901 -0.000191457 
          50     0.790396     0.422155  0.000358433 -0.000191361 
          50     0.817896     0.435895  0.000378507 -0.000191258 
          50     0.845843     0.449753  0.000399084 -0.000191147 
          50     0.874283     0.463744  0.000420194 -0.000191029 
          50      0.90317     0.477836  0.000441803 -0.000190903 
          50     0.932551     0.492042  0.000463946 -0.000190769 
          50     0.962401      0.50634  0.000486608 -0.000190625 
          50     0.992697     0.520708  0.000509779 -0.000190472 
          50      1.02349     0.535157  0.000533503 -0.000190309 
          50      1.05472     0.549651  0.000557747 -0.000190137 
          50      1.08645       0.5642  0.000582561 -0.000189953 
          50      1.11863     0.578767  0.000607908 -0.000189759 
          50       1.1513     0.593358  0.000633835 -0.000189552 
          50      1.18444     0.607947  0.000660319 -0.000189334 
          50      1.21802     0.622503  0.000687333 -0.000189104 
          50      1.25211     0.637032  0.000714912 -0.000188861 
          50      1.28663     0.651489   0.00074299 -0.000188605 
          50      1.32165      0.66588  0.000771591 -0.000188336 
          50      1.35712     0.680158  0.000800634 -0.000188052 
          50      1.39308     0.694325  0.000830126 -0.000187754 
          50      1.42951     0.708348  0.000859998 -0.000187442 
          50      1.46638     0.722192   0.00089017 -0.000187114 
          50      1.50375     0.735858  0.000920632 -0.000186771 
          50      1.54156       0.7493  0.000951276 -0.000186413 
          50      1.57987     0.762518  0.000982074 -0.000186038 
          50      1.61863     0.775468   0.00101291 -0.000185647 
          50      1.65788      0.78815   0.00104375  -0.00018524 
          50      1.69757     0.800522   0.00107448 -0.000184816 
          50      1.73776     0.812586   0.00110506 -0.000184375 
          50      1.77842     0.824312    0.0011354 -0.000183918 
          50      1.81952     0.835673    0.0011654 -0.000183444 
          50      1.86113     0.846672   0.00119502 -0.000182953 
          50      1.90316     0.857276   0.00122413 -0.000182445 
          50      1.94571     0.867489   0.00125273 -0.000181921 
          50      1.98869     0.877282   0.00128068  -0.00018138 
          50      2.03217     0.886663   0.00130796 -0.000180822 
          50      2.07612     0.895615   0.00133448 -0.000180248 
          50      2.12051     0.904126   0.00136017 -0.000179659 
          50       2.1654     0.912205   0.00138501 -0.000179053 
          50      2.21073      0.91984    0.0014089 -0.000178433 
          50      2.25656     0.927041   0.00143185 -0.000177797 
          50      2.30283     0.933801   0.00145378 -0.000177147 
          50       2.3496     0.940135   0.00147468 -0.000176482 
          50      2.39685     0.946044   0.00149452 -0.000175804 
          50      2.44452     0.951533   0.00151327 -0.000175112 
          50      2.49271     0.956619   0.00153094 -0.000174408 
          50      2.54132     0.961309    0.0015475 -0.000173691 
          50      2.59044     0.965622   0.00156298 -0.000172962 
          50         2.64     0.969566   0.00157736 -0.000172222 
          50      2.69006     0.973164   0.00159069  -0.00017147 
          50      2.74056     0.976428   0.00160296 -0.000170708 
          50      2.79156      0.97938   0.00161423 -0.000169936 
          50      2.84304     0.982036   0.00162451 -0.000169154 
          50      2.89494     0.984414   0.00163384 -0.000168363 
          50      2.94735     0.986535   0.00164228 -0.000167563 
          50       3.0002     0.988417   0.00164985 -0.000166755 
          50      3.05355     0.990081   0.00165663 -0.000165939 
          50      3.10733     0.991542   0.00166264 -0.000165115 
          50      3.16163      0.99282   0.00166796 -0.000164284 
          50      3.21639     0.993933   0.00167262 -0.000163445 
          50      3.27158     0.994896   0.00167668 -0.000162601 
          50      3.32729     0.995725   0.00168019 -0.000161749 
          50      3.38342     0.996434   0.00168321 -0.000160892 
          50      3.44007     0.997039   0.00168577 -0.000160028 
          50      3.49714     0.997551   0.00168793 -0.000159159 
          50      3.55472     0.997982   0.00168972 -0.000158284 
          50      3.61273     0.998342    0.0016912 -0.000157405 
          50      3.67125     0.998642   0.00169239 -0.000156519 
          50      3.73025      0.99889   0.00169333 -0.000155628 
          50      3.78967     0.999094   0.00169406 -0.000154734 
          50      3.84961     0.999261   0.00169461 -0.000153834 
          50      3.90996     0.999396     0.001695  -0.00015293 
          50      3.97084     0.999505   0.00169525  -0.00015202 
          50      4.03214     0.999592   0.00169538 -0.000151107 
          50      4.09395     0.999661   0.00169542 -0.000150189 
          50      4.15624     0.999715   0.00169537 -0.000149267 
          50      4.21895     0.999758   0.00169526 -0.000148342 
          50      4.28217     0.999791   0.00169509 -0.000147412 
          50      4.34582     0.999817   0.00169487 -0.000146479 
          50      4.40998     0.999836   0.00169461 -0.000145541 
          50      4.47457     0.999851   0.00169432 -0.000144599 
          50      4.53968     0.999862   0.00169401 -0.000143654 
          50      4.60525      0.99987   0.00169366 -0.000142708 
          50      4.67125     0.999875   0.00169331 -0.000141752 
          50      4.73777      0.99988   0.00169294 -0.000140797 
          50       4.8047     0.999882   0.00169255  -0.00013984 
          50      4.87216     0.999884   0.00169216 -0.000138879 
          50      4.94003     0.999885   0.00169175 -0.000137915 
          50      5.00843     0.999886   0.00169134 -0.000136946 
          50      5.07724     0.999886   0.00169091 -0.000135976 
          50      5.14658     0.999886   0.00169048 -0.000135001 
          50      5.21639     0.999886   0.00169005 -0.000134024 
          50      5.28661     0.999885    0.0016896 -0.000133045 
          50      5.35736     0.999885   0.00168915 -0.000132063 
          50      5.42852     0.999884    0.0016887 -0.000131078 
          50      5.50021     0.999884   0.00168824 -0.000130091 
          50      5.57231     0.999883   0.00168777 -0.000129101 
          50      5.64493     0.999882    0.0016873 -0.000128109 
          50      5.71803     0.999882   0.00168682 -0.000127115 
          50      5.79154     0.999881   0.00168633 -0.000126119 
          50      5.86558      0.99988   0.00168585 -0.000125119 
          50      5.94003      0.99988   0.00168535  -0.00012412 
          50      6.01501     0.999879   0.00168485 -0.000123115 
          50       6.0904     0.999878   0.00168434 -0.000122111 
          50      6.16632     0.999877   0.00168383 -0.000121105 
          50      6.24271     0.999877   0.00168332 -0.000120099 
          50       6.3195     0.999876   0.00168279 -0.000119092 
          50      6.39683     0.999875   0.00168227 -0.000118081 
          50      6.47457     0.999874   0.00168173 -0.000117069 
          50      6.55284     0.999874   0.00168119 -0.000116054 
          50      6.63152     0.999873   0.00168065 -0.000115038 
          50      6.71073     0.999872    0.0016801 -0.000114019 
          50      6.79034     0.999872   0.00167954 -0.000113001 
          50      6.87049     0.999871   0.00167897 -0.000111982 
          50      6.95111      0.99987    0.0016784 -0.000110964 
          50      7.03214     0.999869   0.00167783 -0.000109941 
          50       7.1137     0.999869   0.00167725  -0.00010892 
          50      7.19566     0.999868   0.00167666 -0.000107899 
          50      7.27816     0.999867   0.00167607 -0.000106877 
          50      7.36106     0.999866   0.00167548 -0.000105856 
          50      7.44451     0.999866   0.00167488 -0.000104833 
          50      7.52842     0.999865   0.00167427 -0.000103808 
          50      7.61273     0.999864   0.00167365 -0.000102785 
          50      7.69758     0.999864   0.00167303 -0.000101759 
          50      7.78283     0.999863    0.0016724 -0.000100735 
          50      7.86862     0.999862   0.00167178 -9.97095e-05 
          50      7.95481     0.999861   0.00167114 -9.86847e-05 
          50      8.04155     0.999861    0.0016705 -9.76608e-05 
          50      8.12868      0.99986   0.00166985 -9.66407e-05 
          50      8.21635     0.999859    0.0016692 -9.56199e-05 
          50      8.30449     0.999859   0.00166854 -9.45984e-05 
          50      8.39303     0.999858   0.00166787 -9.35774e-05 
          50      8.48211     0.999857    0.0016672 -9.25556e-05 
          50      8.57159     0.999856   0.00166653 -9.15354e-05 
          50      8.66161     0.999856   0.00166584 -9.05157e-05 
          50      8.75203     0.999855   0.00166516 -8.94985e-05 
          50      8.84299     0.999854   0.00166446 -8.84822e-05 
          50      8.93443     0.999854   0.00166376 -8.74674e-05 
          50      9.02626     0.999853   0.00166305 -8.64548e-05 
          50      9.11863     0.999852   0.00166234  -8.5442e-05 
          50      9.21139     0.999852   0.00166163 -8.44305e-05 
          50      9.30471     0.999851   0.00166091 -8.34185e-05 
          50      9.39841      0.99985   0.00166018 -8.24078e-05 
          50      9.49267      0.99985   0.00165946 -8.13978e-05 
          50      9.58739     0.999849   0.00165872 -8.03909e-05 
          50      9.68251     0.999848   0.00165798 -7.93904e-05 
          50      9.77817     0.999848   0.00165723 -7.83983e-05 
          50      9.87422     0.999847   0.00165648  -7.7389e-05 
          50      9.97083     0.999846   0.00165576  -7.6387e-05 
          50      10.0678     0.999846   0.00165493 -7.53805e-05 
          50      10.1654     0.999845   0.00165418 -7.43894e-05 
          50      10.2633     0.999844   0.00165342 -7.33961e-05 
          50      10.3618     0.999844   0.00165264 -7.24046e-05 
          50      10.4607     0.999843   0.00165185 -7.14179e-05 
          50      10.5601     0.999843   0.00165106  -7.0437e-05 
          50        10.66     0.999842   0.00165027 -6.94594e-05 
          50      10.7603     0.999841   0.00164947 -6.84854e-05 
          50      10.8611     0.999841   0.00164868 -6.75123e-05 
          50      10.9623      0.99984   0.00164788 -6.65411e-05 
          50      11.0641     0.999839   0.00164707 -6.55701e-05 
          50      11.1663     0.999839   0.00164625 -6.46006e-05 
          50       11.269     0.999838   0.00164542 -6.36342e-05 
          50      11.3721     0.999838   0.00164458 -6.26702e-05 
          50      11.4757     0.999837   0.00164374  -6.1711e-05 
          50      11.5798     0.999836    0.0016429 -6.07553e-05 
          50      11.6844     0.999836   0.00164207 -5.98045e-05 
          50      11.7894     0.999835   0.00164124 -5.88563e-05 
          50       11.895     0.999835   0.00164041 -5.79103e-05 
          50      12.0009     0.999834   0.00163957 -5.69665e-05 
          50      12.1073     0.999834    0.0016387 -5.60235e-05 
          50      12.2142     0.999833   0.00163781 -5.50859e-05 
          50      12.3216     0.999833   0.00163694 -5.41602e-05 
          50      12.4294     0.999832   0.00163611 -5.32464e-05 
          50      12.5378     0.999831   0.00163518 -5.23165e-05 
          50      12.6465     0.999831    0.0016343 -5.13999e-05 
          50      12.7558      0.99983   0.00163343 -5.04901e-05 
          50      12.8656      0.99983   0.00163256 -4.95845e-05 
          50      12.9757     0.999829   0.00163169 -4.86821e-05 
          50      13.0864     0.999829    0.0016308 -4.77807e-05 
          50      13.1975     0.999828    0.0016299  -4.6882e-05 
          50      13.3092     0.999828   0.00162898 -4.59852e-05 
          50      13.4212     0.999827   0.00162806 -4.50926e-05 
          50      13.5338     0.999827   0.00162714 -4.42036e-05 
          50      13.6468     0.999826   0.00162622 -4.33193e-05 
          50      13.7603     0.999826   0.00162531 -4.24402e-05 
          50      13.8743     0.999826   0.00162439 -4.15697e-05 
          50      13.9886     0.999825   0.00162347 -4.07078e-05 
          50      14.1036     0.999825   0.00162255 -3.98498e-05 
          50      14.2189     0.999824   0.00162164 -3.89967e-05 
          50      14.3348     0.999824   0.00162071 -3.81469e-05 
          50       14.451     0.999823   0.00161978 -3.73016e-05 
          50      14.5678     0.999823   0.00161884 -3.64596e-05 
          50      14.6851     0.999822   0.00161789 -3.56217e-05 
          50      14.8028     0.999822   0.00161694 -3.47888e-05 
          50       14.921     0.999822   0.00161598   -3.396e-05 
          50      15.0396     0.999821   0.00161503 -3.31371e-05 
          50      15.1588     0.999821   0.00161408 -3.23193e-05 
          50      15.2783     0.999821   0.00161313 -3.15082e-05 
          50      15.3984      0.99982   0.00161218 -3.07026e-05 
          50       15.519      0.99982   0.00161122 -2.99022e-05 
          50        15.64     0.999819   0.00161027 -2.91059e-05 
          50      15.7615     0.999819    0.0016093 -2.83168e-05 
          50      15.8834     0.999819   0.00160834 -2.75335e-05 
          50      16.0058     0.999818   0.00160739 -2.67538e-05 
          50      16.1286     0.999818   0.00160642  -2.5979e-05 
          50       16.252     0.999818   0.00160544 -2.52082e-05 
          50      16.3759     0.999817   0.00160446 -2.44428e-05 
          50      16.5002     0.999817   0.00160347  -2.3684e-05 
          50       16.625     0.999817   0.00160249 -2.29312e-05 
          50      16.7501     0.999817   0.00160151  -2.2186e-05 
          50      16.8759     0.999816   0.00160054 -2.14474e-05 
          50       17.002     0.999816   0.00159956 -2.07164e-05 
          50      17.1287     0.999816   0.00159859 -1.99917e-05 
          50      17.2557     0.999816   0.00159761 -1.92739e-05 
          50      17.3834     0.999815   0.00159663 -1.85611e-05 
          50      17.5115     0.999815   0.00159563 -1.78531e-05 
          50      17.6399     0.999815   0.00159463   -1.715e-05 
          50       17.769     0.999815   0.00159362   -1.645e-05 
          50      17.8984     0.999814   0.00159261 -1.57543e-05 
          50      18.0284     0.999814   0.00159161 -1.50622e-05 
          50      18.1587     0.999814   0.00159061 -1.43762e-05 
          50      18.2896     0.999814   0.00158963 -1.36977e-05 
          50       18.421     0.999813   0.00158868 -1.30309e-05 
          50      18.5528     0.999813    0.0015877 -1.23545e-05 
          50      18.6851     0.999813   0.00158671 -1.16766e-05 
          50      18.8178     0.999813   0.00158573 -1.10104e-05 
          50      18.9511     0.999813   0.00158474 -1.03557e-05 
          50      19.0847     0.999813   0.00158374 -9.71397e-06 
          50      19.2189     0.999813   0.00158272 -9.08413e-06 
          50      19.3535     0.999812   0.00158168  -8.4664e-06 
          50      19.4886     0.999812   0.00158067 -7.85802e-06 
          50      19.6242     0.999812   0.00157973  -7.2565e-06 
          50      19.7602     0.999812    0.0015788 -6.64242e-06 
          50      19.8968     0.999812    0.0015777 -6.01482e-06 
          50      20.0337     0.999812    0.0015767 -5.40534e-06 
          50      20.1712     0.999812   0.00157573  -4.8091e-06 
          50      20.3091     0.999811   0.00157477 -4.22406e-06 
          50      20.4475     0.999811    0.0015738 -3.64728e-06 
          50      20.5864     0.999811    0.0015728  -3.0783e-06 
          50      20.7257     0.999811   0.00157176 -2.51777e-06 
          50      20.8655     0.999811   0.00157077 -1.95234e-06 
          50      21.0058     0.999811   0.00156981 -1.38134e-06 
          50      21.1465     0.999811   0.00156883 -8.17306e-07 
          50      21.2877     0.999811   0.00156782 -2.62146e-07 
          50      21.4294     0.999811   0.00156682  2.84713e-07 
          50      21.5716     0.999811   0.00156581  8.23013e-07 
          50      21.7142     0.999811   0.00156482  1.35284e-06 
          50      21.8573     0.999811   0.00156383  1.87573e-06 
          50      22.0008     0.999811   0.00156285  2.39158e-06 
          50      22.1449     0.999811   0.00156188  2.90195e-06 
          50      22.2893     0.999811   0.00156091  3.40664e-06 
          50      22.4344     0.999811   0.00155994  3.90693e-06 
          50      22.5797     0.999811   0.00155896  4.40236e-06 
          50      22.7257     0.999811   0.00155799  4.89389e-06 
          50      22.8721     0.999811   0.00155701  5.38115e-06 
          50      23.0189     0.999811   0.00155603  5.86366e-06 
          50      23.1663     0.999811   0.00155506  6.34203e-06 
          50       23.314     0.999812   0.00155409   6.8153e-06 
          50      23.4623     0.999812   0.00155313    7.284e-06 
          50       23.611     0.999812   0.00155217  7.74724e-06 
          50      23.7602     0.999812   0.00155121  8.20565e-06 
          50        23.91     0.999811   0.00155024  8.65884e-06 
          50        24.06     0.999811   0.00154927  9.10652e-06 
          50      24.2107     0.999812   0.00154831  9.54947e-06 
          50      24.3617     0.999812   0.00154737   9.9755e-06 
          50      24.5133     0.999812   0.00154643  1.03891e-05 
          50      24.6653     0.999812   0.00154549  1.07997e-05 
          50      24.8178     0.999812   0.00154455  1.12104e-05 
          50      24.9708     0.999812   0.00154359  1.16217e-05 
          50      25.1242     0.999812   0.00154263  1.20326e-05 
          50      25.2781     0.999813   0.00154168  1.24427e-05 
          50      25.4324     0.999813   0.00154073  1.28496e-05 
          50      25.5873     0.999813    0.0015398  1.32522e-05 
          50      25.7426     0.999813   0.00153887  1.36485e-05 
          50      25.8984     0.999814   0.00153795  1.40378e-05 
          50      26.0546     0.999814   0.00153704  1.44189e-05 
          50      26.2114     0.999814   0.00153613  1.47922e-05 
          50      26.3686     0.999814   0.00153522  1.51577e-05 
          50      26.5262     0.999814    0.0015343  1.55157e-05 
          50      26.6844     0.999814   0.00153338  1.58677e-05 
          50      26.8429     0.999814   0.00153246  1.62142e-05 
          50       27.002     0.999814   0.00153152  1.65569e-05 
          50      27.1615     0.999815    0.0015306  1.68963e-05 
          50      27.3216     0.999815   0.00152967  1.72334e-05 
          50      27.4821     0.999815   0.00152876  1.75683e-05 
          50       27.643     0.999816   0.00152787  1.79005e-05 
          50      27.8044     0.999816     0.001527  1.82298e-05 
          50      27.9663     0.999817   0.00152615  1.85547e-05 
          50      28.1287     0.999817   0.00152533  1.88741e-05 
          50      28.2914     0.999817   0.00152452  1.91863e-05 
          50      28.4548     0.999817   0.00152371  1.94906e-05 
          50      28.6185     0.999817   0.00152287  1.97866e-05 
          50      28.7828     0.999818   0.00152197  2.00766e-05 
          50      28.9475     0.999818   0.00152097  2.03647e-05 
          50      29.1126     0.999818   0.00151982  2.06592e-05 
          50      29.2784     0.999818   0.00151882  2.09292e-05 
          50      29.4444     0.999819   0.00151804  2.11828e-05 
          50       29.611      0.99982   0.00151743  2.14422e-05 
          50       29.778      0.99982   0.00151704  2.17218e-05 
          50      29.9456      0.99982   0.00151589  2.21303e-05 
          50      30.1137      0.99982   0.00151505  2.25735e-05 
          50      30.2821     0.999821   0.00151425  2.28725e-05 
          50      30.4511     0.999821   0.00151328  2.29487e-05 
          50      30.6204     0.999821   0.00151238  2.31151e-05 
          50      30.7903     0.999822   0.00151155  2.33396e-05 
          50      30.9606     0.999822   0.00151077  2.35972e-05 
          50      31.1315     0.999822   0.00151001  2.38708e-05 
          50      31.3028     0.999822   0.00150926  2.41478e-05 
          50      31.4745     0.999823   0.00150849  2.44201e-05 
          50      31.6468     0.999823   0.00150769  2.46837e-05 
          50      31.8194     0.999823   0.00150688   2.4936e-05 
          50      31.9926     0.999824   0.00150604  2.51774e-05 
          50      32.1662     0.999824    0.0015052  2.54085e-05 
          50      32.3404     0.999824   0.00150435  2.56313e-05 
          50      32.5149     0.999825   0.00150352  2.58474e-05 
          50        32.69     0.999825   0.00150271  2.60592e-05 
          50      32.8655     0.999826   0.00150192  2.62683e-05 
          50      33.0414     0.999827   0.00150116  2.64757e-05 
          50       33.218     0.999827   0.00150041  2.66829e-05 
          50      33.3948     0.999828   0.00149968    2.689e-05 
          50      33.5723     0.999829   0.00149894  2.70973e-05 
          50        33.75     0.999829    0.0014982  2.73045e-05 
          50      33.9284     0.999829   0.00149745  2.75115e-05 
          50      34.1073      0.99983   0.00149669  2.77175e-05 
          50      34.2865      0.99983   0.00149592  2.79219e-05 
          50      34.4663      0.99983   0.00149517  2.81246e-05 
          50      34.6465      0.99983   0.00149445  2.83248e-05 
          50      34.8272      0.99983   0.00149376  2.85225e-05 
          50      35.0083     0.999831   0.00149312  2.87169e-05 
          50        35.19     0.999832   0.00149247  2.89075e-05 
          50      35.3721     0.999833   0.00149171  2.90924e-05 
          50      35.5546     0.999834   0.00149095  2.92784e-05 
          50      35.7377     0.999834    0.0014903   2.9457e-05 
          50      35.9211     0.999834   0.00148958  2.96247e-05 
          50      36.1052     0.999834   0.00148883  2.97908e-05 
          50      36.2895     0.999835   0.00148809  2.99597e-05 
          50      36.4745     0.999835   0.00148737  3.01335e-05 
          50      36.6598     0.999836   0.00148668  3.03116e-05 
          50      36.8457     0.999837   0.00148602  3.04923e-05 
          50      37.0321     0.999838   0.00148539  3.06729e-05 
          50      37.2188     0.999838   0.00148477  3.08506e-05 
          50      37.4062     0.999839   0.00148415  3.10232e-05 
          50      37.5938     0.999839   0.00148352  3.11888e-05 
          50      37.7821      0.99984   0.00148288   3.1347e-05 
          50      37.9707      0.99984   0.00148221  3.14981e-05 
          50      38.1599      0.99984   0.00148153  3.16437e-05 
          50      38.3496      0.99984   0.00148084  3.17859e-05 
          50      38.5396     0.999841   0.00148016   3.1927e-05 
          50      38.7302     0.999841    0.0014795  3.20697e-05 
          50      38.9211     0.999842   0.00147886  3.22147e-05 
          50      39.1127     0.999842   0.00147825  3.23614e-05 
          50      39.3046     0.999843   0.00147762  3.25049e-05 
          50      39.4971     0.999844   0.00147692  3.26359e-05 
          50      39.6899     0.999845   0.00147603  3.27373e-05 
          50      39.8833     0.999846   0.00147542  3.29127e-05 
          50      40.0772     0.999846    0.0014749  3.31101e-05 
          50      40.2714     0.999846   0.00147437  3.32963e-05 
          50      40.4663     0.999847   0.00147388  3.34727e-05 
          50      40.6615     0.999847   0.00147342  3.36395e-05 
          50      40.8573     0.999847   0.00147298  3.37972e-05 
          50      41.0534     0.999848    0.0014725  3.39455e-05 
          50      41.2501     0.999849   0.00147191  3.40849e-05 
          50      41.4473      0.99985   0.00147116   3.4216e-05 
          50      41.6448     0.999851   0.00147027    3.434e-05 
          50      41.8429     0.999852   0.00146936  3.44599e-05 
          50      42.0414     0.999852   0.00146876  3.45797e-05 
          50      42.2405     0.999851   0.00146913  3.47056e-05 
          50      42.4399     0.999852   0.00146829  3.48561e-05 
          50      42.6399     0.999854   0.00146704  3.50136e-05 
          50      42.8404     0.999854   0.00146659   3.5166e-05 
          50      43.0412     0.999854   0.00146642  3.53123e-05 
          50      43.2426     0.999854   0.00146624  3.54518e-05 
          50      43.4444     0.999854    0.0014659  3.55839e-05 
          50      43.6467     0.999855   0.00146539  3.57089e-05 
          50      43.8494     0.999855   0.00146473   3.5828e-05 
          50      44.0527     0.999856   0.00146399  3.59439e-05 
          50      44.2563     0.999857   0.00146324   3.6061e-05 
          50      44.4606     0.999859   0.00146253  3.61865e-05 
          50      44.6653      0.99986   0.00146193  3.63297e-05 
          50      44.8704      0.99986   0.00146144  3.65029e-05 
          50       45.076     0.999861   0.00146108   3.6722e-05 
          50       45.282      0.99986   0.00146086  3.70054e-05 
          50      45.4886     0.999861   0.00146049  3.70457e-05 
          50      45.6955     0.999861   0.00146001  3.70444e-05 
          50       45.903     0.999862   0.00145951  3.71013e-05 
          50      46.1111     0.999862   0.00145898  3.72047e-05 
          50      46.3194     0.999862   0.00145845  3.73429e-05 
          50      46.5283     0.999862   0.00145789  3.75046e-05 
          50      46.7376     0.999863   0.00145733  3.76792e-05 
          50      46.9475     0.999864   0.00145678  3.78577e-05 
          50      47.1577     0.999865   0.00145624  3.80321e-05 
          50      47.3685     0.999866   0.00145573  3.81973e-05 
          50      47.5798     0.999867   0.00145526  3.83498e-05 
          50      47.7914     0.999868   0.00145484  3.84886e-05 
          50      48.0037      0.99987   0.00145447  3.86152e-05 