Variables = x, y, u, v, p

Zone, I=800, F=POINT
         100            0  2.33183e-18 -8.37252e-30 -0.000156934 
         100     0.000234  0.000117955  1.73706e-11 -0.000156934 
         100     0.000939  0.000473331  2.79721e-10 -0.000156934 
         100     0.002113   0.00106512  1.41644e-09 -0.000156933 
         100     0.003759   0.00189484  4.48282e-09 -0.000156932 
         100     0.005872   0.00295997  1.09393e-08  -0.00015693 
         100     0.008457   0.00426304  2.26913e-08 -0.000156929 
         100      0.01151   0.00580203  4.20329e-08 -0.000156927 
         100     0.015036   0.00757947  7.17327e-08 -0.000156925 
         100     0.019031   0.00959335  1.14919e-07 -0.000156922 
         100     0.023493    0.0118427  1.75131e-07 -0.000156919 
         100     0.028429     0.014331  2.56466e-07 -0.000156916 
         100     0.033831    0.0170542  3.63209e-07 -0.000156913 
         100     0.039706    0.0200159  5.00337e-07 -0.000156909 
         100     0.046047    0.0232126  6.72942e-07 -0.000156905 
         100     0.052863    0.0266488  8.86961e-07 -0.000156901 
         100      0.06015    0.0303224  1.14842e-06 -0.000156896 
         100       0.0679    0.0342295  1.46351e-06 -0.000156891 
         100     0.076126    0.0383767  1.83972e-06 -0.000156886 
         100     0.084816    0.0427577  2.28387e-06  -0.00015688 
         100     0.093982    0.0473788  2.80437e-06 -0.000156874 
         100     0.103611    0.0522332   3.4087e-06 -0.000156868 
         100     0.113718    0.0573286  4.10644e-06 -0.000156862 
         100     0.124286    0.0626563  4.90548e-06 -0.000156855 
         100     0.135333    0.0682254  5.81665e-06 -0.000156848 
         100      0.14685    0.0740311   6.8492e-06 -0.000156841 
         100     0.158827    0.0800685  8.01243e-06 -0.000156833 
         100     0.171284    0.0863473  9.31901e-06 -0.000156825 
         100     0.184201    0.0928575   1.0778e-05 -0.000156817 
         100     0.197599    0.0996093  1.24032e-05 -0.000156808 
         100     0.211455     0.106591  1.42038e-05 -0.000156799 
         100     0.225792     0.113814  1.61952e-05  -0.00015679 
         100       0.2406     0.121272  1.83886e-05 -0.000156781 
         100     0.255865     0.128959   2.0795e-05 -0.000156771 
         100     0.271613     0.136887  2.34319e-05 -0.000156761 
         100     0.287818     0.145043  2.63086e-05  -0.00015675 
         100     0.304506     0.153438  2.94438e-05 -0.000156739 
         100      0.32165     0.162058  3.28468e-05 -0.000156728 
         100     0.339278     0.170917  3.65378e-05 -0.000156716 
         100     0.357377     0.180008  4.05292e-05 -0.000156704 
         100      0.37593     0.189319  4.48321e-05 -0.000156692 
         100     0.394968     0.198867   4.9469e-05 -0.000156679 
         100     0.414461     0.208634   5.4448e-05 -0.000156666 
         100      0.43444     0.218634  5.97926e-05 -0.000156653 
         100     0.454872     0.228849  6.55096e-05 -0.000156639 
         100     0.475791     0.239294   7.1624e-05 -0.000156625 
         100     0.497163      0.24995  7.81416e-05  -0.00015661 
         100     0.519021      0.26083  8.50878e-05 -0.000156595 
         100      0.54135     0.271924  9.24735e-05 -0.000156579 
         100     0.564131      0.28322  0.000100307 -0.000156562 
         100       0.5874     0.294731  0.000108615 -0.000156545 
         100     0.611121     0.306438    0.0001174 -0.000156528 
         100      0.63533     0.318352  0.000126689  -0.00015651 
         100      0.65999     0.330452   0.00013648 -0.000156491 
         100     0.685139     0.342751  0.000146801 -0.000156472 
         100     0.710759     0.355234  0.000157658 -0.000156452 
         100     0.736828     0.367886  0.000169051 -0.000156431 
         100     0.763387     0.380719  0.000181008 -0.000156409 
         100     0.790396     0.393709  0.000193521 -0.000156386 
         100     0.817896     0.406866  0.000206616 -0.000156363 
         100     0.845843     0.420162  0.000220279 -0.000156338 
         100     0.874283     0.433611  0.000234537 -0.000156312 
         100      0.90317     0.447181  0.000249372 -0.000156286 
         100     0.932551     0.460886  0.000264811 -0.000156258 
         100     0.962401     0.474702  0.000280841 -0.000156229 
         100     0.992697      0.48861  0.000297449 -0.000156198 
         100      1.02349     0.502619  0.000314659 -0.000156166 
         100      1.05472     0.516695   0.00033244 -0.000156133 
         100      1.08645     0.530848  0.000350814 -0.000156098 
         100      1.11863     0.545042  0.000369744 -0.000156062 
         100       1.1513     0.559285   0.00038925 -0.000156024 
         100      1.18444     0.573552  0.000409306 -0.000155984 
         100      1.21802     0.587815   0.00042988 -0.000155943 
         100      1.25211     0.602083  0.000450991 -0.000155899 
         100      1.28663     0.616315  0.000472585 -0.000155854 
         100      1.32165     0.630518  0.000494677 -0.000155806 
         100      1.35712     0.644651  0.000517208 -0.000155756 
         100      1.39308     0.658719   0.00054019 -0.000155704 
         100      1.42951     0.672692  0.000563575  -0.00015565 
         100      1.46638      0.68654  0.000587314 -0.000155594 
         100      1.50375     0.700266   0.00061141 -0.000155534 
         100      1.54156      0.71383  0.000635793 -0.000155473 
         100      1.57987     0.727231  0.000660454 -0.000155408 
         100      1.61863     0.740431  0.000685315 -0.000155342 
         100      1.65788      0.75343  0.000710372 -0.000155272 
         100      1.69757     0.766188  0.000735536 -0.000155199 
         100      1.73776     0.778707  0.000760798 -0.000155124 
         100      1.77842     0.790957  0.000786085 -0.000155046 
         100      1.81952     0.802911  0.000811319 -0.000154965 
         100      1.86113     0.814569  0.000836486 -0.000154881 
         100      1.90316     0.825897  0.000861484 -0.000154793 
         100      1.94571     0.836898  0.000886294 -0.000154703 
         100      1.98869     0.847537  0.000910816  -0.00015461 
         100      2.03217      0.85782  0.000935029 -0.000154513 
         100      2.07612     0.867725  0.000958853 -0.000154414 
         100      2.12051     0.877235  0.000982212 -0.000154311 
         100       2.1654     0.886355   0.00100509 -0.000154205 
         100      2.21073     0.895065   0.00102738 -0.000154096 
         100      2.25656     0.903372   0.00104909 -0.000153984 
         100      2.30283      0.91126   0.00107012 -0.000153869 
         100       2.3496      0.91874   0.00109047 -0.000153751 
         100      2.39685     0.925805   0.00111007  -0.00015363 
         100      2.44452     0.932453   0.00112888 -0.000153506 
         100      2.49271     0.938697    0.0011469 -0.000153379 
         100      2.54132     0.944534   0.00116406  -0.00015325 
         100      2.59044      0.94998   0.00118039 -0.000153117 
         100         2.64     0.955036   0.00119584 -0.000152982 
         100      2.69006     0.959721   0.00121043 -0.000152844 
         100      2.74056     0.964038   0.00122412 -0.000152704 
         100      2.79156     0.968009   0.00123695  -0.00015256 
         100      2.84304     0.971644   0.00124891 -0.000152415 
         100      2.89494     0.974955   0.00126001 -0.000152267 
         100      2.94735     0.977965   0.00127029 -0.000152117 
         100       3.0002     0.980685   0.00127974 -0.000151965 
         100      3.05355     0.983137   0.00128842  -0.00015181 
         100      3.10733     0.985335   0.00129633 -0.000151653 
         100      3.16163     0.987299   0.00130354 -0.000151495 
         100      3.21639     0.989044   0.00131006 -0.000151334 
         100      3.27158     0.990588   0.00131593 -0.000151171 
         100      3.32729     0.991948    0.0013212 -0.000151006 
         100      3.38342      0.99314    0.0013259  -0.00015084 
         100      3.44007     0.994181   0.00133008 -0.000150672 
         100      3.49714     0.995083   0.00133377 -0.000150502 
         100      3.55472     0.995864   0.00133702  -0.00015033 
         100      3.61273     0.996533   0.00133986 -0.000150157 
         100      3.67125     0.997106   0.00134234 -0.000149982 
         100      3.73025     0.997594    0.0013445 -0.000149805 
         100      3.78967     0.998006   0.00134636 -0.000149627 
         100      3.84961     0.998353   0.00134795 -0.000149447 
         100      3.90996     0.998643   0.00134932 -0.000149265 
         100      3.97084     0.998884   0.00135048 -0.000149082 
         100      4.03214     0.999083   0.00135147 -0.000148898 
         100      4.09395     0.999247   0.00135231 -0.000148712 
         100      4.15624     0.999381   0.00135302 -0.000148524 
         100      4.21895      0.99949   0.00135361 -0.000148335 
         100      4.28217     0.999578   0.00135411 -0.000148144 
         100      4.34582     0.999648   0.00135453 -0.000147951 
         100      4.40998     0.999705   0.00135488 -0.000147756 
         100      4.47457     0.999749   0.00135517 -0.000147561 
         100      4.53968     0.999784   0.00135542 -0.000147364 
         100      4.60525     0.999812   0.00135564 -0.000147166 
         100      4.67125     0.999833   0.00135582 -0.000146967 
         100      4.73777     0.999849   0.00135597 -0.000146766 
         100       4.8047     0.999862   0.00135611 -0.000146565 
         100      4.87216     0.999871   0.00135623 -0.000146362 
         100      4.94003     0.999878   0.00135634 -0.000146157 
         100      5.00843     0.999884   0.00135645 -0.000145949 
         100      5.07724     0.999888   0.00135655 -0.000145741 
         100      5.14658     0.999891   0.00135663 -0.000145531 
         100      5.21639     0.999893   0.00135671 -0.000145321 
         100      5.28661     0.999895   0.00135679  -0.00014511 
         100      5.35736     0.999896   0.00135687 -0.000144895 
         100      5.42852     0.999897   0.00135695 -0.000144676 
         100      5.50021     0.999897   0.00135702 -0.000144461 
         100      5.57231     0.999898   0.00135709 -0.000144243 
         100      5.64493     0.999898   0.00135716 -0.000144022 
         100      5.71803     0.999898   0.00135723   -0.0001438 
         100      5.79154     0.999898   0.00135731 -0.000143578 
         100      5.86558     0.999899   0.00135739 -0.000143353 
         100      5.94003     0.999899   0.00135745 -0.000143126 
         100      6.01501     0.999899   0.00135752 -0.000142897 
         100       6.0904     0.999899    0.0013576 -0.000142671 
         100      6.16632     0.999899   0.00135766 -0.000142439 
         100      6.24271     0.999899   0.00135774 -0.000142207 
         100       6.3195     0.999899   0.00135782 -0.000141974 
         100      6.39683     0.999899   0.00135789  -0.00014174 
         100      6.47457     0.999899   0.00135796 -0.000141503 
         100      6.55284     0.999899   0.00135803 -0.000141266 
         100      6.63152     0.999899    0.0013581 -0.000141027 
         100      6.71073     0.999899   0.00135818 -0.000140786 
         100      6.79034     0.999899   0.00135825 -0.000140545 
         100      6.87049     0.999899   0.00135833 -0.000140302 
         100      6.95111     0.999899    0.0013584 -0.000140057 
         100      7.03214     0.999899   0.00135846 -0.000139811 
         100       7.1137     0.999899   0.00135853 -0.000139563 
         100      7.19566     0.999899   0.00135861 -0.000139313 
         100      7.27816       0.9999   0.00135869 -0.000139061 
         100      7.36106       0.9999   0.00135876 -0.000138809 
         100      7.44451       0.9999   0.00135883 -0.000138556 
         100      7.52842       0.9999   0.00135889   -0.0001383 
         100      7.61273       0.9999   0.00135899 -0.000138043 
         100      7.69758       0.9999   0.00135904 -0.000137786 
         100      7.78283       0.9999   0.00135912 -0.000137527 
         100      7.86862       0.9999   0.00135921 -0.000137266 
         100      7.95481       0.9999   0.00135929 -0.000137004 
         100      8.04155       0.9999   0.00135936 -0.000136741 
         100      8.12868       0.9999   0.00135943 -0.000136477 
         100      8.21635       0.9999   0.00135949 -0.000136211 
         100      8.30449       0.9999   0.00135956 -0.000135944 
         100      8.39303       0.9999   0.00135962 -0.000135675 
         100      8.48211       0.9999    0.0013597 -0.000135403 
         100      8.57159       0.9999   0.00135977 -0.000135131 
         100      8.66161       0.9999   0.00135985 -0.000134857 
         100      8.75203       0.9999   0.00135993 -0.000134582 
         100      8.84299       0.9999      0.00136 -0.000134305 
         100      8.93443       0.9999   0.00136007 -0.000134028 
         100      9.02626       0.9999   0.00136014  -0.00013375 
         100      9.11863     0.999901    0.0013602 -0.000133471 
         100      9.21139     0.999901   0.00136027 -0.000133189 
         100      9.30471     0.999901   0.00136034 -0.000132905 
         100      9.39841     0.999901   0.00136041 -0.000132619 
         100      9.49267     0.999901   0.00136049  -0.00013233 
         100      9.58739     0.999901   0.00136057 -0.000132042 
         100      9.68251     0.999901   0.00136064 -0.000131758 
         100      9.77817     0.999901   0.00136071 -0.000131463 
         100      9.87422     0.999901   0.00136078 -0.000131166 
         100      9.97083     0.999901   0.00136084  -0.00013087 
         100      10.0678     0.999901   0.00136091 -0.000130574 
         100      10.1654     0.999901   0.00136097  -0.00013028 
         100      10.2633     0.999901   0.00136105 -0.000129989 
         100      10.3618     0.999901   0.00136113 -0.000129692 
         100      10.4607     0.999901    0.0013612 -0.000129392 
         100      10.5601     0.999901   0.00136127  -0.00012909 
         100        10.66     0.999901   0.00136134 -0.000128786 
         100      10.7603     0.999901   0.00136141 -0.000128482 
         100      10.8611     0.999901   0.00136148 -0.000128175 
         100      10.9623     0.999902   0.00136154 -0.000127868 
         100      11.0641     0.999902   0.00136159 -0.000127558 
         100      11.1663     0.999902   0.00136164 -0.000127246 
         100       11.269     0.999902   0.00136171 -0.000126938 
         100      11.3721     0.999902   0.00136178 -0.000126627 
         100      11.4757     0.999902   0.00136186 -0.000126314 
         100      11.5798     0.999902   0.00136193 -0.000125998 
         100      11.6844     0.999902     0.001362 -0.000125681 
         100      11.7894     0.999902   0.00136206  -0.00012536 
         100       11.895     0.999902   0.00136212 -0.000125038 
         100      12.0009     0.999902   0.00136218 -0.000124714 
         100      12.1073     0.999902   0.00136224 -0.000124389 
         100      12.2142     0.999902    0.0013623 -0.000124063 
         100      12.3216     0.999902   0.00136237 -0.000123736 
         100      12.4294     0.999902   0.00136244 -0.000123408 
         100      12.5378     0.999902   0.00136252 -0.000123081 
         100      12.6465     0.999902    0.0013626 -0.000122753 
         100      12.7558     0.999902   0.00136266 -0.000122425 
         100      12.8656     0.999902   0.00136271 -0.000122097 
         100      12.9757     0.999903   0.00136273 -0.000121769 
         100      13.0864     0.999903   0.00136277 -0.000121441 
         100      13.1975     0.999903   0.00136286 -0.000121112 
         100      13.3092     0.999903   0.00136293 -0.000120781 
         100      13.4212     0.999903   0.00136293 -0.000120447 
         100      13.5338     0.999903     0.001363 -0.000120107 
         100      13.6468     0.999903    0.0013631  -0.00011976 
         100      13.7603     0.999903   0.00136318 -0.000119408 
         100      13.8743     0.999903   0.00136325  -0.00011905 
         100      13.9886     0.999903   0.00136331 -0.000118691 
         100      14.1036     0.999903   0.00136336 -0.000118336 
         100      14.2189     0.999903   0.00136339 -0.000117998 
         100      14.3348     0.999903    0.0013634 -0.000117692 
         100       14.451     0.999904   0.00136349 -0.000117329 
         100      14.5678     0.999904   0.00136359 -0.000116955 
         100      14.6851     0.999904   0.00136365   -0.0001166 
         100      14.8028     0.999904    0.0013637 -0.000116255 
         100       14.921     0.999904   0.00136374 -0.000115911 
         100      15.0396     0.999904   0.00136377 -0.000115565 
         100      15.1588     0.999904   0.00136381 -0.000115214 
         100      15.2783     0.999904   0.00136385 -0.000114857 
         100      15.3984     0.999904   0.00136389 -0.000114495 
         100       15.519     0.999904   0.00136394  -0.00011413 
         100        15.64     0.999904     0.001364 -0.000113761 
         100      15.7615     0.999904   0.00136406 -0.000113391 
         100      15.8834     0.999905   0.00136412  -0.00011302 
         100      16.0058     0.999905   0.00136418 -0.000112648 
         100      16.1286     0.999904   0.00136423 -0.000112277 
         100       16.252     0.999904   0.00136427 -0.000111906 
         100      16.3759     0.999904    0.0013643 -0.000111534 
         100      16.5002     0.999904   0.00136432 -0.000111162 
         100       16.625     0.999905   0.00136437 -0.000110791 
         100      16.7501     0.999905   0.00136443 -0.000110422 
         100      16.8759     0.999905   0.00136446 -0.000110055 
         100       17.002     0.999905   0.00136452 -0.000109686 
         100      17.1287     0.999905   0.00136458 -0.000109315 
         100      17.2557     0.999905   0.00136463 -0.000108943 
         100      17.3834     0.999905   0.00136466  -0.00010857 
         100      17.5115     0.999905   0.00136469 -0.000108194 
         100      17.6399     0.999905   0.00136472 -0.000107817 
         100       17.769     0.999906   0.00136475 -0.000107436 
         100      17.8984     0.999906   0.00136479 -0.000107052 
         100      18.0284     0.999906   0.00136483 -0.000106665 
         100      18.1587     0.999906   0.00136489 -0.000106275 
         100      18.2896     0.999906   0.00136494 -0.000105883 
         100       18.421     0.999906     0.001365 -0.000105489 
         100      18.5528     0.999906   0.00136505 -0.000105094 
         100      18.6851     0.999906   0.00136509   -0.0001047 
         100      18.8178     0.999906   0.00136511 -0.000104307 
         100      18.9511     0.999906   0.00136513 -0.000103916 
         100      19.0847     0.999906   0.00136514 -0.000103526 
         100      19.2189     0.999907   0.00136515 -0.000103136 
         100      19.3535     0.999907   0.00136516 -0.000102746 
         100      19.4886     0.999907   0.00136518 -0.000102352 
         100      19.6242     0.999907   0.00136523 -0.000101949 
         100      19.7602     0.999907   0.00136531  -0.00010153 
         100      19.8968     0.999907   0.00136536 -0.000101137 
         100      20.0337     0.999907   0.00136537 -0.000100773 
         100      20.1712     0.999907    0.0013654  -0.00010038 
         100      20.3091     0.999907   0.00136542 -9.99669e-05 
         100      20.4475     0.999907   0.00136542 -9.95426e-05 
         100      20.5864     0.999907   0.00136539 -9.91171e-05 
         100      20.7257     0.999908   0.00136539  -9.8704e-05 
         100      20.8655     0.999908   0.00136558 -9.83216e-05 
         100      21.0058     0.999908    0.0013655 -9.79201e-05 
         100      21.1465     0.999908   0.00136545 -9.75092e-05 
         100      21.2877     0.999908   0.00136551 -9.71062e-05 
         100      21.4294     0.999908    0.0013656 -9.67058e-05 
         100      21.5716     0.999908   0.00136567 -9.63048e-05 
         100      21.7142     0.999908    0.0013657 -9.59012e-05 
         100      21.8573     0.999908    0.0013657 -9.54928e-05 
         100      22.0008     0.999908   0.00136568 -9.50798e-05 
         100      22.1449     0.999908   0.00136566 -9.46617e-05 
         100      22.2893     0.999909   0.00136564 -9.42402e-05 
         100      22.4344     0.999909   0.00136563 -9.38162e-05 
         100      22.5797     0.999909   0.00136566 -9.33923e-05 
         100      22.7257     0.999909   0.00136571 -9.29704e-05 
         100      22.8721     0.999909   0.00136575 -9.25558e-05 
         100      23.0189     0.999909   0.00136578 -9.21367e-05 
         100      23.1663     0.999909   0.00136581 -9.17135e-05 
         100       23.314     0.999909   0.00136582 -9.12885e-05 
         100      23.4623      0.99991   0.00136582 -9.08624e-05 
         100       23.611      0.99991   0.00136581 -9.04368e-05 
         100      23.7602      0.99991   0.00136579 -9.00117e-05 
         100        23.91      0.99991   0.00136576 -8.95875e-05 
         100        24.06      0.99991   0.00136575 -8.91646e-05 
         100      24.2107      0.99991   0.00136576 -8.87417e-05 
         100      24.3617      0.99991   0.00136579 -8.83187e-05 
         100      24.5133      0.99991   0.00136585 -8.78942e-05 
         100      24.6653      0.99991   0.00136591 -8.74679e-05 
         100      24.8178      0.99991   0.00136596 -8.70384e-05 
         100      24.9708      0.99991   0.00136597 -8.66058e-05 
         100      25.1242      0.99991   0.00136591 -8.61708e-05 
         100      25.2781     0.999911    0.0013658 -8.57344e-05 
         100      25.4324     0.999911   0.00136569 -8.53004e-05 
         100      25.5873     0.999911   0.00136574 -8.48735e-05 
         100      25.7426     0.999911   0.00136596 -8.44583e-05 
         100      25.8984     0.999912   0.00136571 -8.40363e-05 
         100      26.0546     0.999912   0.00136569 -8.36113e-05 
         100      26.2114     0.999912   0.00136575 -8.31815e-05 
         100      26.3686     0.999912   0.00136583 -8.27466e-05 
         100      26.5262     0.999912   0.00136588 -8.23069e-05 
         100      26.6844     0.999912   0.00136589 -8.18618e-05 
         100      26.8429     0.999912   0.00136586 -8.14123e-05 
         100       27.002     0.999912   0.00136581 -8.09586e-05 
         100      27.1615     0.999913   0.00136575 -8.05021e-05 
         100      27.3216     0.999913    0.0013657 -8.00433e-05 
         100      27.4821     0.999913   0.00136566 -7.95839e-05 
         100       27.643     0.999913   0.00136564 -7.91259e-05 
         100      27.8044     0.999913   0.00136565 -7.86706e-05 
         100      27.9663     0.999913   0.00136568 -7.82209e-05 
         100      28.1287     0.999914   0.00136571 -7.77788e-05 
         100      28.2914     0.999914   0.00136573 -7.73481e-05 
         100      28.4548     0.999914   0.00136573 -7.69314e-05 
         100      28.6185     0.999914   0.00136568 -7.65333e-05 
         100      28.7828     0.999914   0.00136557 -7.61573e-05 
         100      28.9475     0.999914   0.00136564 -7.56511e-05 
         100      29.1126     0.999914   0.00136566 -7.51545e-05 
         100      29.2784     0.999914   0.00136562 -7.46856e-05 
         100      29.4444     0.999914   0.00136556 -7.42337e-05 
         100       29.611     0.999914   0.00136548 -7.37895e-05 
         100       29.778     0.999915    0.0013654  -7.3348e-05 
         100      29.9456     0.999915   0.00136534 -7.29049e-05 
         100      30.1137     0.999916   0.00136528  -7.2459e-05 
         100      30.2821     0.999916   0.00136523 -7.20104e-05 
         100      30.4511     0.999916    0.0013652 -7.15591e-05 
         100      30.6204     0.999916   0.00136519 -7.11073e-05 
         100      30.7903     0.999916    0.0013652  -7.0656e-05 
         100      30.9606     0.999916   0.00136524  -7.0208e-05 
         100      31.1315     0.999916    0.0013653 -6.97648e-05 
         100      31.3028     0.999916   0.00136533 -6.93293e-05 
         100      31.4745     0.999915   0.00136523 -6.89056e-05 
         100      31.6468     0.999916   0.00136509  -6.8459e-05 
         100      31.8194     0.999917     0.001365 -6.79802e-05 
         100      31.9926     0.999916   0.00136491 -6.74866e-05 
         100      32.1662     0.999916   0.00136487 -6.69805e-05 
         100      32.3404     0.999916   0.00136485 -6.64705e-05 
         100      32.5149     0.999916   0.00136483 -6.59807e-05 
         100        32.69     0.999917    0.0013648 -6.55564e-05 
         100      32.8655     0.999918   0.00136482 -6.50641e-05 
         100      33.0414     0.999919   0.00136484 -6.45371e-05 
         100       33.218     0.999919   0.00136486 -6.40717e-05 
         100      33.3948     0.999919   0.00136486 -6.36496e-05 
         100      33.5723     0.999918   0.00136485 -6.32536e-05 
         100        33.75     0.999918   0.00136481 -6.28704e-05 
         100      33.9284     0.999918   0.00136475  -6.2488e-05 
         100      34.1073     0.999918   0.00136466  -6.2098e-05 
         100      34.2865     0.999919   0.00136455 -6.16944e-05 
         100      34.4663     0.999919   0.00136442 -6.12725e-05 
         100      34.6465      0.99992   0.00136427 -6.08311e-05 
         100      34.8272      0.99992   0.00136412 -6.03694e-05 
         100      35.0083     0.999921   0.00136397 -5.98897e-05 
         100        35.19     0.999921   0.00136385 -5.93939e-05 
         100      35.3721     0.999921   0.00136374 -5.88862e-05 
         100      35.5546     0.999921   0.00136367 -5.83716e-05 
         100      35.7377     0.999921   0.00136364 -5.78539e-05 
         100      35.9211     0.999921   0.00136364 -5.73388e-05 
         100      36.1052     0.999921   0.00136368 -5.68299e-05 
         100      36.2895     0.999921   0.00136374 -5.63318e-05 
         100      36.4745     0.999922   0.00136381 -5.58468e-05 
         100      36.6598     0.999922   0.00136388 -5.53775e-05 
         100      36.8457     0.999922   0.00136394 -5.49237e-05 
         100      37.0321     0.999922   0.00136396  -5.4485e-05 
         100      37.2188     0.999922   0.00136394 -5.40593e-05 
         100      37.4062     0.999923   0.00136386 -5.36425e-05 
         100      37.5938     0.999923   0.00136372 -5.32301e-05 
         100      37.7821     0.999924   0.00136352 -5.28155e-05 
         100      37.9707     0.999924   0.00136328 -5.23929e-05 
         100      38.1599     0.999924   0.00136301  -5.1955e-05 
         100      38.3496     0.999924   0.00136274  -5.1496e-05 
         100      38.5396     0.999924   0.00136251 -5.10117e-05 
         100      38.7302     0.999924   0.00136236 -5.04993e-05 
         100      38.9211     0.999924   0.00136232 -4.99615e-05 
         100      39.1127     0.999924   0.00136241 -4.94046e-05 
         100      39.3046     0.999924   0.00136265 -4.88439e-05 
         100      39.4971     0.999924   0.00136298  -4.8302e-05 
         100      39.6899     0.999924   0.00136333  -4.7815e-05 
         100      39.8833     0.999925   0.00136351 -4.74314e-05 
         100      40.0772     0.999926   0.00136322 -4.72186e-05 
         100      40.2714     0.999927   0.00136202 -4.72641e-05 
         100      40.4663     0.999929   0.00135925 -4.76801e-05 
         100      40.6615     0.999928   0.00136121 -4.60685e-05 
         100      40.8573     0.999927    0.0013625 -4.51768e-05 
         100      41.0534     0.999927   0.00136299 -4.44616e-05 
         100      41.2501     0.999928   0.00136294 -4.38477e-05 
         100      41.4473     0.999928    0.0013626  -4.3369e-05 
         100      41.6448     0.999928   0.00136215 -4.29967e-05 
         100      41.8429     0.999928   0.00136175 -4.26675e-05 
         100      42.0414     0.999928   0.00136146 -4.23456e-05 
         100      42.2405     0.999928   0.00136129  -4.2007e-05 
         100      42.4399     0.999928   0.00136122 -4.16385e-05 
         100      42.6399     0.999929   0.00136123 -4.12336e-05 
         100      42.8404     0.999929   0.00136126 -4.07925e-05 
         100      43.0412     0.999929   0.00136129 -4.03193e-05 
         100      43.2426      0.99993   0.00136129 -3.98198e-05 
         100      43.4444      0.99993   0.00136125 -3.93024e-05 
         100      43.6467      0.99993   0.00136116 -3.87744e-05 
         100      43.8494      0.99993   0.00136102 -3.82441e-05 
         100      44.0527      0.99993   0.00136086 -3.77171e-05 
         100      44.2563      0.99993   0.00136069 -3.71992e-05 
         100      44.4606      0.99993   0.00136053 -3.66931e-05 
         100      44.6653     0.999931   0.00136038 -3.62007e-05 
         100      44.8704     0.999931   0.00136027 -3.57225e-05 
         100       45.076     0.999931    0.0013602 -3.52562e-05 
         100       45.282     0.999932   0.00136016 -3.47999e-05 
         100      45.4886     0.999932   0.00136014 -3.43497e-05 
         100      45.6955     0.999932   0.00136012 -3.39024e-05 
         100       45.903     0.999933   0.00136009 -3.34537e-05 
         100      46.1111     0.999933   0.00136003 -3.30006e-05 
         100      46.3194     0.999933   0.00135992 -3.25411e-05 
         100      46.5283     0.999934   0.00135975 -3.20731e-05 
         100      46.7376     0.999934   0.00135952 -3.15974e-05 
         100      46.9475     0.999934   0.00135927 -3.11144e-05 
         100      47.1577     0.999934   0.00135901 -3.06273e-05 
         100      47.3685     0.999934   0.00135879 -3.01386e-05 
         100      47.5798     0.999934   0.00135865 -2.96518e-05 
         100      47.7914     0.999934   0.00135865 -2.91697e-05 
         100      48.0037     0.999934    0.0013588 -2.86914e-05 