Variables = x, y, u, v, p

Zone, I=416, F=POINT
         -50            0            0            0      33.6817 
         -50     0.013333  6.53341e-05  2.91206e-08      33.6817 
         -50     0.053333  7.39672e-05  1.72928e-07      33.6817 
         -50         0.12  8.14866e-05  6.44003e-07      33.6817 
         -50     0.213332  8.37203e-05  1.58081e-06      33.6817 
         -50     0.333332  8.28319e-05  3.35721e-06      33.6816 
         -50         0.48  8.34838e-05  6.18904e-06      33.6816 
         -50     0.653331   8.6722e-05  9.33377e-06      33.6815 
         -50     0.853332  8.91895e-05  1.19245e-05      33.6813 
         -50         1.08  8.71786e-05  1.46888e-05      33.6811 
         -50      1.33333  8.17702e-05  1.71108e-05      33.6807 
         -50      1.61333  7.51503e-05  1.88938e-05      33.6803 
         -50         1.92  6.84872e-05  1.93137e-05      33.6797 
         -50      2.25333  6.08412e-05  1.93036e-05      33.6789 
         -50      2.61333  5.54693e-05  1.90242e-05       33.678 
         -50            3  5.48458e-05  1.77329e-05      33.6768 
         -25            0           -0           -0      32.3411 
         -25     0.013333  4.09738e-05  6.55772e-10      32.3411 
         -25     0.053333  3.34448e-05 -8.56994e-08      32.3411 
         -25         0.12  3.10664e-05 -4.88357e-07      32.3411 
         -25     0.213332  3.65963e-05 -1.43857e-06      32.3411 
         -25     0.333332  4.51052e-05 -2.96975e-06      32.3411 
         -25         0.48  5.10047e-05 -4.93742e-06       32.341 
         -25     0.653331  5.28107e-05 -6.86946e-06       32.341 
         -25     0.853332  5.22756e-05 -8.81026e-06      32.3409 
         -25         1.08    5.081e-05 -1.03055e-05      32.3408 
         -25      1.33333  4.76892e-05 -1.13138e-05      32.3407 
         -25      1.61333  4.42689e-05 -1.16496e-05      32.3405 
         -25         1.92  4.46551e-05 -1.05743e-05      32.3403 
         -25      2.25333  4.39431e-05   -9.349e-06        32.34 
         -25      2.61333  4.06833e-05 -7.85488e-06      32.3397 
         -25            3  3.89315e-05 -4.81389e-06      32.3392 
           0            0            0            0      31.2395 
           0     0.013333  0.000104167 -6.83395e-05      31.2407 
           0     0.053333  8.47717e-05 -3.59801e-05      31.2426 
           0         0.12  8.75066e-05  -2.5375e-05      31.2448 
           0     0.213332  9.92654e-05 -2.02351e-05      31.2472 
           0     0.333332  0.000109614 -1.79072e-05      31.2496 
           0         0.48  0.000114181 -1.64756e-05       31.252 
           0     0.653331  0.000113039 -1.56907e-05      31.2543 
           0     0.853332  0.000104463 -1.54547e-05      31.2566 
           0         1.08  8.91411e-05 -1.56235e-05      31.2588 
           0      1.33333  7.10218e-05 -1.59123e-05      31.2609 
           0      1.61333  5.00632e-05 -1.60345e-05       31.263 
           0         1.92   2.8151e-05 -1.57174e-05      31.2649 
           0      2.25333  1.33707e-05 -1.47932e-05      31.2667 
           0      2.61333  9.07593e-06 -1.26958e-05      31.2684 
           0            3  1.04769e-05 -1.13654e-05        31.27 
          20            0 -0.000182417  7.30576e-05      30.5903 
          20     0.013333 -0.000172993  7.27268e-05      30.5903 
          20     0.053333 -0.000144182  7.14713e-05      30.5903 
          20         0.12 -9.51478e-05  6.84472e-05      30.5902 
          20     0.213332 -2.78831e-05   6.2062e-05        30.59 
          20     0.333332  4.64081e-05  4.98541e-05      30.5898 
          20         0.48  0.000103921  2.91039e-05      30.5896 
          20     0.653331  0.000125602 -9.51824e-07      30.5893 
          20     0.853332  0.000125408 -3.68614e-05      30.5889 
          20         1.08  0.000131181 -7.26803e-05      30.5885 
          20      1.33333  0.000146408 -0.000103931       30.588 
          20      1.61333   0.00016394 -0.000127598      30.5874 
          20         1.92  0.000177046 -0.000141645      30.5867 
          20      2.25333  0.000177973 -0.000146055      30.5859 
          20      2.61333  0.000166565 -0.000142674      30.5851 
          20            3  0.000138606 -0.000137956      30.5842 
          40            0           -0           -0      29.8883 
          40     0.013333  6.35107e-05  -2.6808e-07      29.8883 
          40     0.053333  0.000190837 -3.74824e-06      29.8883 
          40         0.12  0.000419882 -1.47719e-05      29.8883 
          40     0.213332  0.000628174 -3.26174e-05      29.8883 
          40     0.333332  0.000698408 -5.18991e-05      29.8883 
          40         0.48  0.000636798 -7.06668e-05      29.8883 
          40     0.653331  0.000509399 -9.20049e-05      29.8883 
          40     0.853332  0.000397052 -0.000114842      29.8883 
          40         1.08  0.000293396 -0.000134974      29.8883 
          40      1.33333  0.000163191 -0.000150097      29.8882 
          40      1.61333  4.62935e-05  -0.00015678      29.8882 
          40         1.92 -6.16614e-05 -0.000153857      29.8881 
          40      2.25333 -0.000130272  -0.00014254       29.888 
          40      2.61333 -0.000160925 -0.000125469      29.8879 
          40            3  -0.00017088 -0.000105874      29.8877 
          60            0           -0           -0       29.225 
          60     0.013333  0.000221295 -1.46083e-07       29.225 
          60     0.053333  0.000714764 -1.53706e-06       29.225 
          60         0.12   0.00126784  -2.8512e-06       29.225 
          60     0.213332   0.00159204  3.72833e-06       29.225 
          60     0.333332   0.00162299  2.69828e-05       29.225 
          60         0.48   0.00154466  6.85164e-05       29.225 
          60     0.653331   0.00151327   0.00012085       29.225 
          60     0.853332   0.00144389  0.000168468       29.225 
          60         1.08   0.00119059  0.000199637       29.225 
          60      1.33333   0.00083926  0.000217029       29.225 
          60      1.61333  0.000484269  0.000228881      29.2249 
          60         1.92  0.000117081  0.000232851      29.2249 
          60      2.25333 -0.000166008   0.00022714      29.2248 
          60      2.61333 -0.000341635  0.000215029      29.2247 
          60            3 -0.000434604  0.000198906      29.2246 
          80            0           -0           -0      28.5847 
          80     0.013333  0.000157263 -1.84599e-07      28.5847 
          80     0.053333  0.000515333 -2.38559e-06      28.5847 
          80         0.12   0.00099292 -8.30826e-06      28.5847 
          80     0.213332   0.00139572 -1.50592e-05      28.5847 
          80     0.333332   0.00160536 -1.65525e-05      28.5847 
          80         0.48   0.00166352 -9.26443e-06      28.5847 
          80     0.653331    0.0016455  4.38743e-06      28.5847 
          80     0.853332   0.00151102  1.59222e-05      28.5847 
          80         1.08    0.0011885  1.71845e-05      28.5846 
          80      1.33333  0.000804237   9.7011e-06      28.5846 
          80      1.61333  0.000481489  2.33936e-06      28.5846 
          80         1.92   0.00015551 -4.37034e-06      28.5846 
          80      2.25333 -0.000106137 -1.06174e-05      28.5845 
          80      2.61333  -0.00028088 -1.49247e-05      28.5845 
          80            3 -0.000381716 -1.77595e-05      28.5844 
         100            0           -0           -0      27.9578 
         100     0.013333  5.11125e-05 -2.37488e-07      27.9578 
         100     0.053333  0.000157787 -3.39486e-06      27.9578 
         100         0.12   0.00039311 -1.41475e-05      27.9578 
         100     0.213332  0.000686056 -3.41289e-05      27.9578 
         100     0.333332  0.000910029 -6.02939e-05      27.9578 
         100         0.48    0.0010065 -8.90105e-05      27.9578 
         100     0.653331  0.000975486 -0.000120018      27.9578 
         100     0.853332  0.000824012 -0.000154906      27.9578 
         100         1.08  0.000618849 -0.000191166      27.9578 
         100      1.33333  0.000450699 -0.000223091      27.9577 
         100      1.61333  0.000300347 -0.000246858      27.9577 
         100         1.92   0.00011995 -0.000260569      27.9577 
         100      2.25333 -3.12346e-05 -0.000263186      27.9577 
         100      2.61333 -0.000139505 -0.000255164      27.9576 
         100            3 -0.000210318 -0.000238661      27.9576 
         150            0  3.57724e-20  7.36782e-26      26.4217 
         150     0.013333  3.17523e-05  2.43596e-08      26.4217 
         150     0.053333    3.067e-05  3.71023e-07      26.4217 
         150         0.12  1.30207e-05  1.69365e-06      26.4217 
         150     0.213332 -2.00241e-05  4.48641e-06      26.4217 
         150     0.333332 -5.09374e-05  8.56434e-06      26.4217 
         150         0.48 -6.54979e-05  1.32449e-05      26.4217 
         150     0.653331 -6.35833e-05  1.79778e-05      26.4217 
         150     0.853332 -5.17552e-05  2.25306e-05      26.4217 
         150         1.08 -3.78193e-05  2.65768e-05      26.4217 
         150      1.33333 -2.77738e-05  2.95865e-05      26.4217 
         150      1.61333 -1.70508e-05  3.13806e-05      26.4217 
         150         1.92 -8.97967e-07  3.18617e-05      26.4217 
         150      2.25333  1.37426e-05  3.10066e-05      26.4217 
         150      2.61333  2.57601e-05   2.8844e-05      26.4217 
         150            3  3.60366e-05  2.56052e-05      26.4217 
         200            0           -0           -0       24.905 
         200     0.013333 -5.84352e-06  2.62781e-07       24.905 
         200     0.053333 -0.000164635  3.83521e-06       24.905 
         200         0.12 -0.000506977  1.64934e-05       24.905 
         200     0.213332 -0.000949011   4.1127e-05       24.905 
         200     0.333332  -0.00130606  7.44312e-05       24.905 
         200         0.48  -0.00147274  0.000110393       24.905 
         200     0.653331  -0.00146874  0.000145884       24.905 
         200     0.853332  -0.00134164  0.000181393       24.905 
         200         1.08  -0.00113401   0.00021658       24.905 
         200      1.33333 -0.000901231  0.000248379       24.905 
         200      1.61333 -0.000657403  0.000273209       24.905 
         200         1.92 -0.000381932  0.000288649       24.905 
         200      2.25333 -0.000124703  0.000293255       24.905 
         200      2.61333  9.27044e-05  0.000286618       24.905 
         200            3  0.000261609  0.000270122       24.905 
         250            0           -0           -0      23.3954 
         250     0.013333  0.000105306  1.81159e-07      23.3954 
         250     0.053333  0.000256454  2.73772e-06      23.3954 
         250         0.12  0.000332965  1.24554e-05      23.3954 
         250     0.213332  0.000266165  3.35547e-05      23.3954 
         250     0.333332  0.000115673  6.69069e-05      23.3954 
         250         0.48  -1.9033e-05  0.000110809      23.3954 
         250     0.653331 -7.40597e-05  0.000163775      23.3954 
         250     0.853332 -2.78109e-05  0.000225069      23.3954 
         250         1.08  7.72593e-05  0.000291527      23.3954 
         250      1.33333  0.000143209  0.000356015      23.3954 
         250      1.61333  0.000144411  0.000411742      23.3954 
         250         1.92  0.000135962  0.000454255      23.3954 
         250      2.25333  0.000119185  0.000480191      23.3954 
         250      2.61333  9.63449e-05  0.000487837      23.3954 
         250            3  7.20992e-05  0.000477464      23.3954 
         300            0            0            0      21.8876 
         300     0.013333  3.75399e-06   -1.913e-07      21.8876 
         300     0.053333 -5.15576e-06 -2.90087e-06      21.8876 
         300         0.12  0.000121344 -1.32138e-05      21.8876 
         300     0.213332  0.000397954 -3.53481e-05      21.8876 
         300     0.333332  0.000702092 -6.90221e-05      21.8876 
         300         0.48  0.000902405 -0.000110225      21.8876 
         300     0.653331  0.000958814 -0.000155293      21.8876 
         300     0.853332  0.000896959 -0.000202625      21.8876 
         300         1.08   0.00077104 -0.000250244      21.8876 
         300      1.33333  0.000641349 -0.000294514      21.8876 
         300      1.61333  0.000516521 -0.000332217      21.8876 
         300         1.92  0.000370218  -0.00036073      21.8876 
         300      2.25333  0.000221416 -0.000377611      21.8876 
         300      2.61333  8.11756e-05 -0.000381345      21.8876 
         300            3 -4.21813e-05 -0.000371893      21.8876 
         350            0            0            0      20.3793 
         350     0.013333 -0.000110259  1.38581e-07      20.3793 
         350     0.053333 -0.000506134  1.86898e-06      20.3793 
         350         0.12  -0.00105612  7.03133e-06      20.3793 
         350     0.213332  -0.00156824  1.42988e-05      20.3793 
         350     0.333332  -0.00187541  1.87731e-05      20.3793 
         350         0.48   -0.0019573  1.56867e-05      20.3793 
         350     0.653331  -0.00190824  3.81896e-06      20.3793 
         350     0.853332  -0.00180737 -1.43466e-05      20.3793 
         350         1.08  -0.00165274 -3.45074e-05      20.3793 
         350      1.33333  -0.00141665 -5.29682e-05      20.3793 
         350      1.61333  -0.00111778 -6.88168e-05      20.3793 
         350         1.92 -0.000784948 -8.22054e-05      20.3794 
         350      2.25333  -0.00044471 -9.23558e-05      20.3794 
         350      2.61333 -0.000119104 -9.88758e-05      20.3794 
         350            3    0.0001664 -0.000101443      20.3794 
         400            0  2.35389e-19 -6.03521e-28       18.873 
         400     0.013333  0.000261881 -4.17523e-08       18.873 
         400     0.053333  0.000869216 -2.90155e-07       18.873 
         400         0.12   0.00159378  9.00844e-07       18.873 
         400     0.213332   0.00212562   9.3006e-06       18.873 
         400     0.333332   0.00231079  3.23267e-05       18.873 
         400         0.48   0.00223565  7.38251e-05       18.873 
         400     0.653331   0.00208789  0.000132189       18.873 
         400     0.853332   0.00197222  0.000202025       18.873 
         400         1.08   0.00184812  0.000275665       18.873 
         400      1.33333   0.00162699  0.000345513       18.873 
         400      1.61333   0.00131311   0.00040757       18.873 
         400         1.92  0.000962704  0.000459683       18.873 
         400      2.25333  0.000599317  0.000498306      18.8729 
         400      2.61333   0.00024357  0.000520626      18.8729 
         400            3  -7.5445e-05  0.000525077      18.8729 
         450            0            0            0      17.3641 
         450     0.013333 -0.000196709  7.85528e-08      17.3641 
         450     0.053333 -0.000799164  8.78497e-07      17.3641 
         450         0.12  -0.00155105  1.94325e-06      17.3641 
         450     0.213332  -0.00214933 -1.32792e-06      17.3641 
         450     0.333332   -0.0024068 -1.63306e-05      17.3641 
         450         0.48  -0.00236982 -4.79877e-05      17.3641 
         450     0.653331  -0.00221407 -9.56362e-05      17.3641 
         450     0.853332  -0.00205984 -0.000154459      17.3641 
         450         1.08   -0.0019024 -0.000218138      17.3641 
         450      1.33333  -0.00168074  -0.00028085      17.3641 
         450      1.61333  -0.00137818 -0.000338659      17.3641 
         450         1.92  -0.00102847 -0.000388961      17.3641 
         450      2.25333 -0.000657496 -0.000428602      17.3641 
         450      2.61333 -0.000287176 -0.000454825      17.3642 
         450            3  5.43333e-05 -0.000465788      17.3642 
         500            0            0            0      15.8573 
         500     0.013333  0.000260124  1.42597e-07      15.8573 
         500     0.053333  0.000806971  2.48845e-06      15.8573 
         500         0.12   0.00132196  1.34553e-05      15.8573 
         500     0.213332   0.00150971  4.25249e-05      15.8573 
         500     0.333332    0.0013621  9.61191e-05      15.8573 
         500         0.48   0.00110947     0.000173      15.8573 
         500     0.653331  0.000968152  0.000266755      15.8573 
         500     0.853332  0.000985002  0.000370067      15.8573 
         500         1.08   0.00104328  0.000474492      15.8573 
         500      1.33333  0.000986691  0.000570775      15.8573 
         500      1.61333  0.000806523  0.000653725      15.8573 
         500         1.92  0.000608397  0.000722127      15.8573 
         500      2.25333  0.000411089  0.000772048      15.8573 
         500      2.61333  0.000215458  0.000799691      15.8573 
         500            3  3.28845e-05  0.000802512      15.8572 
         550            0           -0           -0      14.3498 
         550     0.013333  0.000159226 -4.98616e-07      14.3498 
         550     0.053333  0.000638344 -7.23265e-06      14.3498 
         550         0.12   0.00154423 -3.08865e-05      14.3498 
         550     0.213332   0.00265901 -7.64967e-05      14.3498 
         550     0.333332   0.00355371 -0.000137256      14.3498 
         550         0.48   0.00396928 -0.000200819      14.3498 
         550     0.653331   0.00396351 -0.000260694      14.3498 
         550     0.853332   0.00368966 -0.000319759      14.3498 
         550         1.08   0.00322057 -0.000383723      14.3498 
         550      1.33333   0.00265112 -0.000451227      14.3498 
         550      1.61333   0.00212545 -0.000513217      14.3498 
         550         1.92   0.00162671 -0.000563135      14.3498 
         550      2.25333   0.00110567  -0.00059882      14.3497 
         550      2.61333  0.000571387 -0.000617953      14.3497 
         550            3  6.70992e-05 -0.000618494      14.3497 
         600            0           -0           -0      12.8384 
         600     0.013333 -0.000315766  4.72934e-07      12.8384 
         600     0.053333  -0.00133911  6.54684e-06      12.8384 
         600         0.12   -0.0028569  2.58711e-05      12.8384 
         600     0.213332  -0.00437894  5.73567e-05      12.8384 
         600     0.333332  -0.00538361  8.85002e-05      12.8384 
         600         0.48  -0.00572904  0.000105825      12.8384 
         600     0.653331  -0.00564748  0.000106047      12.8384 
         600     0.853332  -0.00537502  9.71801e-05      12.8384 
         600         1.08  -0.00492006  9.22248e-05      12.8384 
         600      1.33333  -0.00423061  9.89049e-05      12.8384 
         600      1.61333  -0.00342958  0.000113087      12.8384 
         600         1.92  -0.00264201  0.000126412      12.8384 
         600      2.25333  -0.00183509  0.000136486      12.8385 
         600      2.61333  -0.00100572  0.000143238      12.8385 
         600            3   -0.0002071  0.000146403      12.8386 
         650            0            0            0      11.3322 
         650     0.013333  0.000355372 -3.78395e-07      11.3322 
         650     0.053333    0.0013066 -5.18924e-06      11.3322 
         650         0.12   0.00268574 -2.01643e-05      11.3322 
         650     0.213332   0.00403886 -4.34894e-05      11.3322 
         650     0.333332   0.00491077 -6.40629e-05      11.3322 
         650         0.48    0.0051929 -7.04749e-05      11.3322 
         650     0.653331   0.00510614 -6.00935e-05      11.3322 
         650     0.853332   0.00487574 -3.97613e-05      11.3322 
         650         1.08   0.00451523 -2.11532e-05      11.3322 
         650      1.33333   0.00394495 -1.29965e-05      11.3322 
         650      1.61333   0.00323514  -1.4127e-05      11.3322 
         650         1.92   0.00252699   -1.757e-05      11.3322 
         650      2.25333   0.00180847 -2.04499e-05      11.3321 
         650      2.61333   0.00107157 -2.29731e-05      11.3321 
         650            3  0.000352143 -2.54626e-05       11.332 
         700            0 -2.65339e-20  -3.0571e-27      9.81986 
         700     0.013333 -0.000152369   4.0108e-07      9.81986 
         700     0.053333 -0.000742635  5.73662e-06      9.81986 
         700         0.12  -0.00173633  2.40229e-05      9.81986 
         700     0.213332  -0.00288544  5.82126e-05      9.81986 
         700     0.333332  -0.00380479  0.000102105      9.81986 
         700         0.48  -0.00428297  0.000145786      9.81986 
         700     0.653331  -0.00438734  0.000184155      9.81986 
         700     0.853332   -0.0042675  0.000219886      9.81986 
         700         1.08  -0.00396222  0.000260195      9.81986 
         700      1.33333  -0.00345932  0.000309629      9.81986 
         700      1.61333  -0.00285455  0.000364406      9.81986 
         700         1.92  -0.00226491  0.000416186      9.81988 
         700      2.25333  -0.00166837   0.00046024       9.8199 
         700      2.61333  -0.00105043  0.000493947      9.81993 
         700            3  -0.00043532  0.000515192      9.81997 
         750            0           -0           -0      8.31135 
         750     0.013333  2.20186e-06 -1.99422e-07      8.31135 
         750     0.053333 -1.51345e-05 -2.92519e-06      8.31135 
         750         0.12  8.53984e-05  -1.2779e-05      8.31135 
         750     0.213332  0.000315289 -3.29165e-05      8.31135 
         750     0.333332  0.000575135 -6.26963e-05      8.31135 
         750         0.48  0.000768578  -9.9346e-05      8.31135 
         750     0.653331  0.000871756 -0.000141408      8.31135 
         750     0.853332  0.000885268 -0.000190239      8.31135 
         750         1.08  0.000781886 -0.000248553      8.31135 
         750      1.33333  0.000566774 -0.000316287      8.31135 
         750      1.61333  0.000348116 -0.000387434      8.31135 
         750         1.92  0.000215502  -0.00045388      8.31135 
         750      2.25333  0.000120639 -0.000511594      8.31134 
         750      2.61333  3.01137e-05 -0.000557729      8.31133 
         750            3  -5.3435e-05 -0.000589659      8.31132 
         800            0            0            0      6.80035 
         800     0.013333 -0.000171522  3.24675e-08      6.80035 
         800     0.053333 -0.000696746  2.28395e-07      6.80035 
         800         0.12  -0.00132167 -7.60159e-07      6.80035 
         800     0.213332  -0.00175688 -7.99173e-06      6.80035 
         800     0.333332  -0.00183464 -2.86092e-05      6.80035 
         800         0.48  -0.00162614 -6.67478e-05      6.80035 
         800     0.653331  -0.00133861 -0.000120589      6.80035 
         800     0.853332  -0.00111722 -0.000184167      6.80035 
         800         1.08  -0.00096035 -0.000250559      6.80035 
         800      1.33333 -0.000795143 -0.000314518      6.80035 
         800      1.61333 -0.000606108  -0.00037447      6.80035 
         800         1.92 -0.000439394 -0.000431018      6.80035 
         800      2.25333 -0.000284927 -0.000482311      6.80036 
         800      2.61333 -0.000129782 -0.000525109      6.80038 
         800            3  2.17797e-05 -0.000556192      6.80039 
         850            0           -0           -0       5.2915 
         850     0.013333  0.000239318 -4.34125e-07       5.2915 
         850     0.053333  0.000926629 -6.28502e-06       5.2915 
         850         0.12   0.00210435 -2.68055e-05       5.2915 
         850     0.213332   0.00350524 -6.63471e-05       5.2915 
         850     0.333332   0.00466156 -0.000118671       5.2915 
         850         0.48   0.00526559 -0.000171657       5.2915 
         850     0.653331   0.00535714 -0.000217379      5.29151 
         850     0.853332   0.00513982 -0.000256906      5.29151 
         850         1.08   0.00473177 -0.000296985      5.29151 
         850      1.33333   0.00416548 -0.000342285      5.29151 
         850      1.61333   0.00352632 -0.000390254       5.2915 
         850         1.92   0.00290957 -0.000434181      5.29149 
         850      2.25333   0.00227744 -0.000470441      5.29147 
         850      2.61333   0.00160481 -0.000497265      5.29144 
         850            3  0.000918671 -0.000513026       5.2914 
         900            0            0            0      3.77895 
         900     0.013333  0.000385909  4.80553e-07      3.77895 
         900     0.053333   0.00115676  7.59005e-06      3.77895 
         900         0.12    0.0016751  3.68678e-05      3.77895 
         900     0.213332   0.00145067  0.000106972      3.77895 
         900     0.333332  0.000574019  0.000228198      3.77895 
         900         0.48 -0.000430144  0.000396236      3.77895 
         900     0.653331  -0.00109011  0.000598255      3.77895 
         900     0.853332  -0.00125123  0.000823136      3.77895 
         900         1.08  -0.00101268   0.00106348      3.77895 
         900      1.33333 -0.000631997   0.00130917      3.77895 
         900      1.61333 -0.000389145   0.00154551      3.77895 
         900         1.92 -0.000312527    0.0017613      3.77895 
         900      2.25333 -0.000269183   0.00194904      3.77895 
         900      2.61333 -0.000202347   0.00210079      3.77895 
         900            3  -0.00012878   0.00220733      3.77896 
         950            0            0            0      2.26602 
         950     0.013333 -0.000490581  1.24049e-07      2.26602 
         950     0.053333  -0.00187922  1.26026e-06      2.26602 
         950         0.12  -0.00362419  1.58097e-06      2.26602 
         950     0.213332  -0.00503758 -9.08289e-06      2.26602 
         950     0.333332  -0.00567618 -4.59564e-05      2.26602 
         950         0.48  -0.00562902 -0.000118393      2.26602 
         950     0.653331  -0.00532446 -0.000223727      2.26601 
         950     0.853332  -0.00510088 -0.000350605      2.26601 
         950         1.08   -0.0049632 -0.000483769      2.26601 
         950      1.33333  -0.00466165   -0.0006071      2.26601 
         950      1.61333  -0.00404683 -0.000710783      2.26602 
         950         1.92  -0.00330208 -0.000797899      2.26603 
         950      2.25333  -0.00256421 -0.000871835      2.26605 
         950      2.61333  -0.00183432  -0.00093118      2.26608 
         950            3  -0.00107815   -0.0009714      2.26613 
        1000            0            0            0     0.757392 
        1000     0.013333  0.000332123 -4.19196e-07     0.757392 
        1000     0.053333   0.00125464 -5.88727e-06     0.757392 
        1000         0.12   0.00268214 -2.39697e-05     0.757392 
        1000     0.213332   0.00418308 -5.53983e-05     0.757392 
        1000     0.333332   0.00521022 -9.00853e-05     0.757393 
        1000         0.48     0.005542 -0.000114999     0.757394 
        1000     0.653331    0.0053929 -0.000125506     0.757396 
        1000     0.853332   0.00506765 -0.000128675     0.757398 
        1000         1.08   0.00463162 -0.000137973       0.7574 
        1000      1.33333   0.00399025 -0.000163571     0.757399 
        1000      1.61333   0.00322068 -0.000202852     0.757395 
        1000         1.92   0.00257566 -0.000242385     0.757384 
        1000      2.25333   0.00202382 -0.000275681     0.757364 
        1000      2.61333   0.00147617 -0.000301883     0.757333 
        1000            3  0.000906494 -0.000321607      0.75729 
