Variables = x, y, u, v, p

Zone, I=400, F=POINT
         100            0            0            0 -5.11126e-05 
         100     0.000471  0.000236297  6.35738e-11 -5.11123e-05 
         100     0.001884  0.000945187  1.01718e-09 -5.11115e-05 
         100     0.004239   0.00212667  5.14949e-09 -5.11101e-05 
         100     0.007537   0.00378125  1.62793e-08 -5.11082e-05 
         100     0.011776   0.00590793  3.97407e-08 -5.11058e-05 
         100     0.016958   0.00850771  8.24119e-08 -5.11028e-05 
         100     0.023081    0.0115796  1.52669e-07 -5.10993e-05 
         100      0.03015    0.0151261  2.60506e-07 -5.10953e-05 
         100     0.038157    0.0191431  4.17248e-07 -5.10907e-05 
         100     0.047107    0.0236333  6.35942e-07 -5.10856e-05 
         100     0.056999    0.0285961   9.3107e-07 -5.10799e-05 
         100     0.067837    0.0340334  1.31881e-06 -5.10737e-05 
         100     0.079614    0.0399418  1.81647e-06 -5.10669e-05 
         100     0.092332    0.0463221  2.44316e-06 -5.10596e-05 
         100     0.105992    0.0531748  3.21951e-06 -5.10518e-05 
         100       0.1206    0.0605028  4.16805e-06 -5.10434e-05 
         100     0.136145    0.0683004  5.31169e-06 -5.10345e-05 
         100     0.152631    0.0765693  6.67577e-06  -5.1025e-05 
         100     0.170067    0.0853138  8.28777e-06  -5.1015e-05 
         100     0.188438    0.0945259  1.01744e-05 -5.10045e-05 
         100     0.207751     0.104209  1.23659e-05 -5.09934e-05 
         100     0.228006     0.114361  1.48933e-05 -5.09818e-05 
         100     0.249212     0.124987  1.77902e-05 -5.09696e-05 
         100     0.271351     0.136076   2.1088e-05 -5.09568e-05 
         100     0.294433     0.147633  2.48233e-05 -5.09435e-05 
         100     0.318456     0.159653  2.90321e-05 -5.09297e-05 
         100     0.343432     0.172141  3.37545e-05 -5.09153e-05 
         100     0.369339     0.185084   3.9025e-05 -5.09003e-05 
         100     0.396189     0.198485  4.48857e-05 -5.08847e-05 
         100     0.423981     0.212338  5.13772e-05 -5.08686e-05 
         100     0.452726     0.226646  5.85437e-05 -5.08518e-05 
         100     0.482403     0.241392  6.64224e-05 -5.08345e-05 
         100     0.513021     0.256576  7.50577e-05 -5.08165e-05 
         100     0.544594     0.272197  8.44967e-05 -5.07979e-05 
         100     0.577096     0.288234  9.47743e-05 -5.07786e-05 
         100     0.610541     0.304684  0.000105937 -5.07586e-05 
         100     0.644927     0.321536  0.000118026  -5.0738e-05 
         100      0.68027     0.338786  0.000131087 -5.07166e-05 
         100     0.716541     0.356405  0.000145149 -5.06944e-05 
         100     0.753754     0.374385  0.000160253 -5.06715e-05 
         100     0.791909     0.392708  0.000176435 -5.06477e-05 
         100     0.831022     0.411361  0.000193733  -5.0623e-05 
         100     0.871061     0.430308   0.00021216 -5.05974e-05 
         100     0.912043     0.449532  0.000231747 -5.05709e-05 
         100     0.953966     0.469006   0.00025251 -5.05432e-05 
         100     0.996849     0.488708  0.000274473 -5.05145e-05 
         100      1.04066     0.508591   0.00029762 -5.04845e-05 
         100      1.08541     0.528627  0.000321961 -5.04534e-05 
         100      1.13112     0.548786  0.000347493 -5.04208e-05 
         100      1.17775     0.569013  0.000374178 -5.03869e-05 
         100      1.22533      0.58927  0.000401995 -5.03514e-05 
         100      1.27384     0.609513  0.000430903 -5.03144e-05 
         100      1.32333     0.629701  0.000460863 -5.02756e-05 
         100      1.37373     0.649767  0.000491787  -5.0235e-05 
         100      1.42507     0.669666   0.00052361 -5.01924e-05 
         100      1.47736     0.689344  0.000556245 -5.01479e-05 
         100      1.53061     0.708752  0.000589603 -5.01012e-05 
         100      1.58478     0.727819  0.000623544 -5.00522e-05 
         100      1.63989     0.746494  0.000657955  -5.0001e-05 
         100      1.69595     0.764723  0.000692701 -4.99473e-05 
         100      1.75297     0.782456  0.000727647  -4.9891e-05 
         100      1.81091     0.799627  0.000762613 -4.98322e-05 
         100      1.86979     0.816191  0.000797448 -4.97706e-05 
         100      1.92964     0.832107  0.000832001 -4.97062e-05 
         100       1.9904     0.847319  0.000866074 -4.96391e-05 
         100      2.05211     0.861795  0.000899512  -4.9569e-05 
         100      2.11476     0.875503  0.000932149 -4.94961e-05 
         100      2.17838     0.888421  0.000963837 -4.94203e-05 
         100      2.24291     0.900518  0.000994399 -4.93416e-05 
         100      2.30839     0.911788   0.00102371   -4.926e-05 
         100       2.3748     0.922226   0.00105164 -4.91756e-05 
         100      2.44219     0.931836   0.00107809 -4.90884e-05 
         100      2.51049     0.940621   0.00110295 -4.89985e-05 
         100      2.57974     0.948603   0.00112617 -4.89059e-05 
         100      2.64993     0.955804   0.00114769 -4.88109e-05 
         100      2.72108     0.962258    0.0011675 -4.87136e-05 
         100      2.79315     0.967994   0.00118558 -4.86137e-05 
         100      2.86617     0.973056   0.00120195 -4.85111e-05 
         100      2.94012     0.977488   0.00121666 -4.84062e-05 
         100      3.01505     0.981339   0.00122977 -4.82987e-05 
         100      3.09089     0.984653   0.00124134 -4.81882e-05 
         100      3.16767     0.987482   0.00125146 -4.80735e-05 
         100      3.24542     0.989877   0.00126024 -4.79579e-05 
         100      3.32409     0.991884   0.00126778 -4.78423e-05 
         100       3.4037      0.99355    0.0012742 -4.77255e-05 
         100      3.48425     0.994921    0.0012796  -4.7607e-05 
         100      3.56577     0.996038   0.00128411 -4.74866e-05 
         100       3.6482     0.996937   0.00128783 -4.73644e-05 
         100      3.73158     0.997655   0.00129087 -4.72404e-05 
         100       3.8159     0.998221   0.00129332 -4.71147e-05 
         100      3.90119     0.998663   0.00129528 -4.69875e-05 
         100       3.9874     0.999004   0.00129683  -4.6859e-05 
         100      4.07454     0.999264   0.00129804 -4.67293e-05 
         100      4.16263      0.99946   0.00129898 -4.65982e-05 
         100      4.25169     0.999606   0.00129969 -4.64659e-05 
         100      4.34166     0.999713   0.00130024 -4.63322e-05 
         100      4.43258     0.999791   0.00130064 -4.61968e-05 
         100      4.52447     0.999847   0.00130094 -4.60597e-05 
         100      4.61726     0.999887   0.00130116  -4.5921e-05 
         100        4.711     0.999914   0.00130133 -4.57806e-05 
         100      4.80569     0.999933   0.00130144 -4.56388e-05 
         100      4.90135     0.999946   0.00130153 -4.54962e-05 
         100      4.99791     0.999955   0.00130159 -4.53544e-05 
         100      5.09542     0.999961   0.00130164 -4.52079e-05 
         100      5.19387     0.999965   0.00130168 -4.50606e-05 
         100       5.2933     0.999967   0.00130171 -4.49128e-05 
         100      5.39364     0.999969   0.00130174 -4.47631e-05 
         100      5.49491      0.99997   0.00130176 -4.46133e-05 
         100      5.59713      0.99997   0.00130178 -4.44607e-05 
         100      5.70033     0.999971    0.0013018 -4.43058e-05 
         100      5.80443     0.999971   0.00130181 -4.41493e-05 
         100      5.90948     0.999971   0.00130183 -4.39914e-05 
         100      6.01551     0.999971   0.00130185  -4.3832e-05 
         100      6.12244     0.999972   0.00130187 -4.36714e-05 
         100      6.23031     0.999972   0.00130189 -4.35091e-05 
         100      6.33912     0.999972    0.0013019  -4.3345e-05 
         100      6.44892     0.999972   0.00130192 -4.31795e-05 
         100      6.55962     0.999972   0.00130194 -4.30126e-05 
         100      6.67126     0.999972   0.00130196 -4.28441e-05 
         100      6.78384     0.999972   0.00130197 -4.26745e-05 
         100      6.89741     0.999972   0.00130199 -4.25043e-05 
         100      7.01187     0.999972   0.00130201 -4.23338e-05 
         100      7.12728     0.999973   0.00130202 -4.21607e-05 
         100      7.24363     0.999973   0.00130205 -4.19855e-05 
         100      7.36097     0.999973   0.00130206 -4.18113e-05 
         100       7.4792     0.999973   0.00130208 -4.16311e-05 
         100      7.59838     0.999973   0.00130209 -4.14532e-05 
         100      7.71854     0.999973   0.00130211 -4.12761e-05 
         100       7.8396     0.999973   0.00130213 -4.10989e-05 
         100      7.96161     0.999973   0.00130214 -4.09176e-05 
         100      8.08455     0.999974   0.00130216 -4.07339e-05 
         100      8.20849     0.999974   0.00130218 -4.05482e-05 
         100      8.33332     0.999974    0.0013022 -4.03611e-05 
         100      8.45909     0.999974   0.00130222 -4.01726e-05 
         100       8.5858     0.999974   0.00130224 -3.99828e-05 
         100      8.71351     0.999974   0.00130226 -3.97916e-05 
         100       8.8421     0.999974   0.00130228  -3.9599e-05 
         100      8.97164     0.999974    0.0013023 -3.94048e-05 
         100      9.10212     0.999975   0.00130232 -3.92091e-05 
         100       9.2336     0.999975   0.00130233 -3.90119e-05 
         100      9.36596     0.999975   0.00130235 -3.88133e-05 
         100      9.49927     0.999975   0.00130237 -3.86132e-05 
         100      9.63352     0.999975   0.00130239 -3.84115e-05 
         100      9.76877     0.999975   0.00130241 -3.82073e-05 
         100       9.9049     0.999975   0.00130243 -3.80034e-05 
         100       10.042     0.999976   0.00130245 -3.77975e-05 
         100      10.1801     0.999976   0.00130247  -3.7589e-05 
         100       10.319     0.999976   0.00130249 -3.73795e-05 
         100      10.4589     0.999976   0.00130251 -3.71696e-05 
         100      10.5998     0.999976   0.00130253 -3.69592e-05 
         100      10.7416     0.999976   0.00130254 -3.67479e-05 
         100      10.8843     0.999976   0.00130256 -3.65349e-05 
         100       11.028     0.999977   0.00130258 -3.63186e-05 
         100      11.1726     0.999977   0.00130259  -3.6097e-05 
         100      11.3182     0.999977   0.00130262 -3.58806e-05 
         100      11.4647     0.999977   0.00130264 -3.56609e-05 
         100      11.6122     0.999977   0.00130266 -3.54389e-05 
         100      11.7605     0.999977   0.00130268 -3.52156e-05 
         100      11.9099     0.999977    0.0013027 -3.49913e-05 
         100      12.0602     0.999978   0.00130272  -3.4766e-05 
         100      12.2114     0.999978   0.00130273 -3.45395e-05 
         100      12.3636     0.999978   0.00130275 -3.43112e-05 
         100      12.5167     0.999978   0.00130277 -3.40813e-05 
         100      12.6707     0.999978    0.0013028 -3.38497e-05 
         100      12.8257     0.999978   0.00130282 -3.36169e-05 
         100      12.9817     0.999978   0.00130282 -3.33835e-05 
         100      13.1386     0.999979   0.00130285 -3.31466e-05 
         100      13.2964     0.999979   0.00130287  -3.2909e-05 
         100      13.4551     0.999979   0.00130289 -3.26708e-05 
         100      13.6149     0.999979   0.00130291 -3.24315e-05 
         100      13.7755     0.999979   0.00130293 -3.21907e-05 
         100      13.9371     0.999979   0.00130295 -3.19478e-05 
         100      14.0996      0.99998   0.00130297 -3.17025e-05 
         100      14.2631      0.99998   0.00130299 -3.14551e-05 
         100      14.4275      0.99998     0.001303 -3.12062e-05 
         100      14.5928      0.99998   0.00130302 -3.09565e-05 
         100      14.7592      0.99998   0.00130304 -3.07068e-05 
         100      14.9264      0.99998   0.00130307 -3.04574e-05 
         100      15.0946     0.999981   0.00130309 -3.02076e-05 
         100      15.2637     0.999981    0.0013031 -2.99547e-05 
         100      15.4338     0.999981   0.00130311 -2.96945e-05 
         100      15.6048     0.999981   0.00130313 -2.94404e-05 
         100      15.7767     0.999981   0.00130315 -2.91784e-05 
         100      15.9496     0.999981   0.00130318 -2.89141e-05 
         100      16.1235     0.999982   0.00130319 -2.86505e-05 
         100      16.2982     0.999982   0.00130322 -2.83889e-05 
         100      16.4739     0.999982   0.00130323 -2.81261e-05 
         100      16.6506     0.999982   0.00130324 -2.78613e-05 
         100      16.8282     0.999982   0.00130326 -2.75944e-05 
         100      17.0068     0.999982   0.00130329 -2.73258e-05 
         100      17.1862     0.999983   0.00130331 -2.70559e-05 
         100      17.3667     0.999983   0.00130332 -2.67848e-05 
         100      17.5481     0.999983   0.00130333 -2.65129e-05 
         100      17.7304     0.999983   0.00130334   -2.624e-05 
         100      17.9136     0.999983   0.00130336 -2.59657e-05 
         100      18.0979     0.999984   0.00130338 -2.56897e-05 
         100       18.283     0.999984   0.00130341 -2.54119e-05 
         100      18.4691     0.999984   0.00130344 -2.51323e-05 
         100      18.6561     0.999984   0.00130346 -2.48534e-05 
         100      18.8441     0.999984   0.00130347 -2.45729e-05 
         100       19.033     0.999984   0.00130347 -2.42893e-05 
         100      19.2228     0.999984   0.00130348 -2.40042e-05 
         100      19.4136     0.999985   0.00130349 -2.37192e-05 
         100      19.6054     0.999985   0.00130352 -2.34351e-05 
         100       19.798     0.999985   0.00130356 -2.31513e-05 
         100      19.9917     0.999986   0.00130358 -2.28648e-05 
         100      20.1862     0.999986   0.00130359 -2.25722e-05 
         100      20.3818     0.999985    0.0013036 -2.22626e-05 
         100      20.5782     0.999986    0.0013036 -2.19627e-05 
         100      20.7756     0.999986    0.0013036 -2.16665e-05 
         100       20.974     0.999986   0.00130361 -2.13687e-05 
         100      21.1732     0.999986   0.00130363 -2.10688e-05 
         100      21.3734     0.999987   0.00130366 -2.07666e-05 
         100      21.5745     0.999987   0.00130368 -2.04621e-05 
         100      21.7767     0.999987    0.0013037 -2.01555e-05 
         100      21.9797     0.999987   0.00130372 -1.98475e-05 
         100      22.1837     0.999987   0.00130373 -1.95386e-05 
         100      22.3886     0.999987   0.00130374  -1.9229e-05 
         100      22.5945     0.999988   0.00130375  -1.8919e-05 
         100      22.8013     0.999988   0.00130377 -1.86087e-05 
         100      23.0091     0.999988   0.00130379 -1.82981e-05 
         100      23.2177     0.999988    0.0013038 -1.79869e-05 
         100      23.4274     0.999989   0.00130382 -1.76745e-05 
         100       23.638     0.999989   0.00130383 -1.73607e-05 
         100      23.8495     0.999989   0.00130384 -1.70448e-05 
         100       24.062     0.999989   0.00130385 -1.67265e-05 
         100      24.2754     0.999989   0.00130386 -1.64059e-05 
         100      24.4897      0.99999   0.00130388 -1.60834e-05 
         100       24.705      0.99999   0.00130391 -1.57598e-05 
         100      24.9213      0.99999   0.00130392 -1.54372e-05 
         100      25.1385      0.99999   0.00130393 -1.51065e-05 
         100      25.3566      0.99999   0.00130395 -1.47732e-05 
         100      25.5756     0.999991   0.00130396 -1.44409e-05 
         100      25.7957     0.999991   0.00130396 -1.41071e-05 
         100      26.0166     0.999991   0.00130397 -1.37713e-05 
         100      26.2385     0.999991   0.00130398 -1.34332e-05 
         100      26.4613     0.999991   0.00130399 -1.30934e-05 
         100      26.6851     0.999992   0.00130401 -1.27525e-05 
         100      26.9098     0.999992   0.00130403 -1.24115e-05 
         100      27.1354     0.999992   0.00130405 -1.20706e-05 
         100      27.3621     0.999992   0.00130406 -1.17297e-05 
         100      27.5896     0.999992   0.00130407 -1.13887e-05 
         100      27.8181     0.999993   0.00130407 -1.10467e-05 
         100      28.0475     0.999993   0.00130407 -1.07029e-05 
         100      28.2779     0.999993   0.00130407 -1.03562e-05 
         100      28.5092     0.999993   0.00130407  -1.0006e-05 
         100      28.7414     0.999993   0.00130407 -9.65257e-06 
         100      28.9746     0.999994   0.00130409 -9.29706e-06 
         100      29.2088     0.999994   0.00130412 -8.94256e-06 
         100      29.4439     0.999994   0.00130414  -8.5887e-06 
         100      29.6799     0.999994   0.00130416  -8.2311e-06 
         100      29.9168     0.999994   0.00130418 -7.87244e-06 
         100      30.1548     0.999995   0.00130418 -7.51415e-06 
         100      30.3936     0.999995   0.00130416 -7.15801e-06 
         100      30.6334     0.999995   0.00130414  -6.8055e-06 
         100      30.8742     0.999996   0.00130418 -6.45833e-06 
         100      31.1158     0.999996   0.00130425 -6.08228e-06 
         100      31.3584     0.999996    0.0013042 -5.67834e-06 
         100       31.602     0.999996   0.00130419 -5.29311e-06 
         100      31.8465     0.999996   0.00130421 -4.91829e-06 
         100      32.0919     0.999996   0.00130425 -4.55162e-06 
         100      32.3383     0.999997   0.00130427 -4.19519e-06 
         100      32.5856     0.999997   0.00130427 -3.85544e-06 
         100       32.834     0.999997   0.00130428 -3.48911e-06 
         100      33.0831     0.999998   0.00130431 -3.07074e-06 
         100      33.3333     0.999998   0.00130427  -2.6889e-06 
         100      33.5843     0.999998   0.00130422 -2.32166e-06 
         100      33.8364     0.999998   0.00130418 -1.95443e-06 
         100      34.0894     0.999998   0.00130417 -1.57973e-06 
         100      34.3433     0.999999   0.00130419  -1.1951e-06 
         100      34.5981     0.999999   0.00130422 -8.02162e-07 
         100       34.854     0.999999   0.00130426 -4.04669e-07 
         100      35.1107     0.999999   0.00130429 -7.45053e-09 
         100      35.3684            1    0.0013043  3.86051e-07 
         100      35.6271            1   0.00130429  7.74489e-07 
         100      35.8867            1   0.00130427  1.15878e-06 
         100      36.1472            1   0.00130425  1.54294e-06 
         100      36.4086            1   0.00130424  1.93232e-06 
         100      36.6711            1   0.00130425  2.33159e-06 
         100      36.9344            1   0.00130428  2.74021e-06 
         100      37.1987            1    0.0013043  3.14764e-06 
         100      37.4639            1   0.00130422  3.52483e-06 
         100      37.7301            1   0.00130427  3.93959e-06 
         100      37.9972            1    0.0013043  4.33765e-06 
         100      38.2652            1   0.00130428  4.72291e-06 
         100      38.5342            1   0.00130425  5.12561e-06 
         100      38.8042            1   0.00130425  5.55039e-06 
         100      39.0751            1   0.00130425  5.98596e-06 
         100      39.3469            1   0.00130426  6.41528e-06 
         100      39.6197            1   0.00130427   6.8238e-06 
         100      39.8934            1   0.00130428  7.20762e-06 
         100       40.168            1   0.00130426  7.58389e-06 
         100      40.4436            1   0.00130414  8.00087e-06 
         100      40.7202            1   0.00130413  8.40166e-06 
         100      40.9977            1   0.00130418  8.79428e-06 
         100      41.2761            1   0.00130418  9.21304e-06 
         100      41.5554      1.00001   0.00130417  9.64687e-06 
         100      41.8358      1.00001   0.00130416  1.00879e-05 
         100       42.117      1.00001   0.00130415  1.05303e-05 
         100      42.3992      1.00001   0.00130415  1.09707e-05 
         100      42.6823      1.00001   0.00130415  1.14076e-05 
         100      42.9664      1.00001   0.00130415  1.18408e-05 
         100      43.2514      1.00001   0.00130414  1.22708e-05 
         100      43.5373      1.00001   0.00130413   1.2699e-05 
         100      43.8243      1.00001   0.00130412  1.31276e-05 
         100      44.1121      1.00001   0.00130412  1.35582e-05 
         100      44.4009      1.00001   0.00130411  1.39926e-05 
         100      44.6906      1.00001   0.00130409  1.44323e-05 
         100      44.9813      1.00001   0.00130404   1.4878e-05 
         100      45.2729      1.00001   0.00130402  1.53169e-05 
         100      45.5654      1.00001   0.00130404   1.5754e-05 
         100      45.8589      1.00001   0.00130407  1.61922e-05 
         100      46.1534      1.00001   0.00130409  1.66316e-05 
         100      46.4488      1.00001   0.00130408  1.70737e-05 
         100      46.7451      1.00001   0.00130403  1.75201e-05 
         100      47.0423      1.00001   0.00130394  1.79704e-05 
         100      47.3406      1.00001   0.00130385  1.84232e-05 
         100      47.6397      1.00001    0.0013038  1.88755e-05 
         100      47.9398      1.00001   0.00130385  1.93261e-05 
         100      48.2409      1.00001   0.00130399  1.97773e-05 
         100      48.5428      1.00001   0.00130397  2.02377e-05 
         100      48.8457      1.00001   0.00130381  2.07016e-05 
         100      49.1496      1.00001   0.00130396  2.11486e-05 
         100      49.4545      1.00001   0.00130383  2.16078e-05 
         100      49.7602      1.00001   0.00130372  2.20665e-05 
         100      50.0668      1.00001   0.00130371  2.25208e-05 
         100      50.3744      1.00001   0.00130376  2.29719e-05 
         100      50.6831      1.00001   0.00130382  2.34238e-05 
         100      50.9926      1.00001   0.00130384  2.38809e-05 
         100       51.303      1.00001   0.00130379  2.43472e-05 
         100      51.6144      1.00001   0.00130368  2.48248e-05 
         100      51.9268      1.00002   0.00130356  2.53136e-05 
         100        52.24      1.00002   0.00130347  2.58095e-05 
         100      52.5542      1.00002   0.00130343  2.63065e-05 
         100      52.8694      1.00002   0.00130346  2.67955e-05 
         100      53.1856      1.00002   0.00130355  2.72653e-05 
         100      53.5026      1.00002   0.00130368  2.77027e-05 
         100      53.8205      1.00002   0.00130376  2.81429e-05 
         100      54.1396      1.00002   0.00130364  2.86625e-05 
         100      54.4594      1.00002    0.0013035  2.91522e-05 
         100      54.7802      1.00002   0.00130333  2.96253e-05 
         100      55.1019      1.00002   0.00130319  3.00933e-05 
         100      55.4247      1.00002    0.0013031  3.05663e-05 
         100      55.7483      1.00002    0.0013031  3.10502e-05 
         100      56.0729      1.00002    0.0013032  3.15462e-05 
         100      56.3984      1.00002   0.00130335  3.20486e-05 
         100       56.725      1.00002   0.00130342  3.25417e-05 
         100      57.0523      1.00002   0.00130314  3.29964e-05 
         100      57.3807      1.00002   0.00130303   3.3469e-05 
         100      57.7099      1.00002   0.00130332   3.4018e-05 
         100      58.0403      1.00002   0.00130312  3.45267e-05 
         100      58.3714      1.00002    0.0013029   3.5018e-05 
         100      58.7035      1.00002    0.0013028  3.55066e-05 
         100      59.0367      1.00002   0.00130281  3.60004e-05 
         100      59.3707      1.00002   0.00130287  3.65014e-05 
         100      59.7056      1.00002   0.00130292   3.7009e-05 
         100      60.0414      1.00002   0.00130291  3.75204e-05 
         100      60.3784      1.00002   0.00130284  3.80323e-05 
         100      60.7161      1.00002   0.00130274   3.8541e-05 
         100      61.0548      1.00002   0.00130264  3.90446e-05 
         100      61.3944      1.00002   0.00130256  3.95426e-05 
         100      61.7351      1.00002   0.00130253  4.00365e-05 
         100      62.0767      1.00003   0.00130253  4.05292e-05 
         100      62.4191      1.00003   0.00130255  4.10255e-05 
         100      62.7625      1.00003   0.00130253  4.15312e-05 
         100       63.107      1.00003   0.00130246  4.20523e-05 
         100      63.4523      1.00003   0.00130234  4.25929e-05 
         100      63.7985      1.00003    0.0013022   4.3155e-05 
         100      64.1458      1.00003    0.0013021   4.3736e-05 
         100      64.4939      1.00003   0.00130216  4.43254e-05 
         100       64.843      1.00003   0.00130238   4.4904e-05 
         100      65.1929      1.00003   0.00130256   4.5395e-05 
         100       65.544      1.00003   0.00130222  4.57717e-05 
         100      65.8959      1.00003   0.00130152  4.63834e-05 
         100      66.2487      1.00003   0.00130161  4.71283e-05 
         100      66.6025      1.00003   0.00130198  4.75823e-05 
         100      66.9573      1.00003   0.00130206  4.80182e-05 
         100       67.313      1.00003   0.00130196  4.84667e-05 
         100      67.6695      1.00003   0.00130178  4.89427e-05 
         100      68.0271      1.00003    0.0013016   4.9449e-05 
         100      68.3857      1.00003   0.00130145  4.99818e-05 
         100      68.7451      1.00003   0.00130137  5.05326e-05 
         100      69.1055      1.00003   0.00130134  5.10927e-05 
         100      69.4669      1.00004   0.00130136   5.1654e-05 
         100      69.8291      1.00004   0.00130139    5.221e-05 
         100      70.1923      1.00003    0.0013014  5.27574e-05 
         100      70.5564      1.00003   0.00130139  5.32957e-05 
         100      70.9217      1.00003   0.00130134  5.38269e-05 
         100      71.2877      1.00003   0.00130125  5.43544e-05 
         100      71.6546      1.00003   0.00130113  5.48833e-05 
         100      72.0225      1.00004   0.00130101  5.54182e-05 
         100      72.3915      1.00004   0.00130089  5.59631e-05 
         100      72.7613      1.00004   0.00130081  5.65195e-05 
         100       73.132      1.00004   0.00130075   5.7087e-05 
         100      73.5036      1.00004    0.0013007  5.76623e-05 
         100      73.8764      1.00004   0.00130066    5.824e-05 
         100      74.2499      1.00004   0.00130059  5.88131e-05 
         100      74.6244      1.00003   0.00130051  5.93758e-05 
         100           75            1   0.00130048  5.99267e-05 
