Variables = x, y, u, v, p

Zone, I=400, F=POINT
         950            0  9.63091e-15  4.48457e-28 -6.40643e-06 
         950     0.000471  0.000137775  1.27054e-11 -6.40638e-06 
         950     0.001884  0.000551101  2.03284e-10 -6.40621e-06 
         950     0.004239   0.00123998  1.02912e-09 -6.40594e-06 
         950     0.007537    0.0022047  3.25333e-09 -6.40557e-06 
         950     0.011776   0.00344467   7.9418e-09 -6.40508e-06 
         950     0.016958    0.0049605  1.64688e-08 -6.40449e-06 
         950     0.023081   0.00675158  3.05078e-08 -6.40379e-06 
         950      0.03015   0.00881939  5.20551e-08 -6.40298e-06 
         950     0.038157    0.0111616  8.33724e-08 -6.40206e-06 
         950     0.047107    0.0137796  1.27066e-07 -6.40104e-06 
         950     0.056999    0.0166732  1.86025e-07  -6.3999e-06 
         950     0.067837    0.0198435  2.63482e-07 -6.39866e-06 
         950     0.079614    0.0232885  3.62889e-07 -6.39732e-06 
         950     0.092332    0.0270088  4.88061e-07 -6.39586e-06 
         950     0.105992    0.0310045  6.43116e-07  -6.3943e-06 
         950       0.1206    0.0352776  8.32547e-07 -6.39263e-06 
         950     0.136145    0.0398247  1.06093e-06 -6.39085e-06 
         950     0.152631     0.044647  1.33332e-06 -6.38896e-06 
         950     0.170067     0.049747  1.65521e-06 -6.38697e-06 
         950     0.188438    0.0551204  2.03194e-06 -6.38487e-06 
         950     0.207751    0.0607692  2.46954e-06 -6.38266e-06 
         950     0.228006    0.0666932  2.97425e-06 -6.38035e-06 
         950     0.249212     0.072895  3.55281e-06 -6.37793e-06 
         950     0.271351    0.0793692  4.21156e-06  -6.3754e-06 
         950     0.294433    0.0861185  4.95786e-06 -6.37277e-06 
         950     0.318456    0.0931422  5.79904e-06 -6.37002e-06 
         950     0.343432     0.100443  6.74324e-06 -6.36717e-06 
         950     0.369339     0.108016  7.79759e-06 -6.36422e-06 
         950     0.396189     0.115862  8.97079e-06 -6.36116e-06 
         950     0.423981     0.123982  1.02713e-05 -6.35799e-06 
         950     0.452726     0.132377  1.17086e-05 -6.35471e-06 
         950     0.482403     0.141042  1.32905e-05 -6.35132e-06 
         950     0.513021     0.149978  1.50268e-05 -6.34783e-06 
         950     0.544594     0.159189  1.69281e-05 -6.34423e-06 
         950     0.577096     0.168665  1.90024e-05 -6.34053e-06 
         950     0.610541     0.178411  2.12606e-05 -6.33671e-06 
         950     0.644927     0.188423  2.37128e-05 -6.33279e-06 
         950      0.68027     0.198706  2.63707e-05 -6.32876e-06 
         950     0.716541     0.209249  2.92426e-05 -6.32462e-06 
         950     0.753754     0.220054  3.23404e-05 -6.32037e-06 
         950     0.791909     0.231119  3.56749e-05 -6.31601e-06 
         950     0.831022     0.242447  3.92586e-05 -6.31153e-06 
         950     0.871061     0.254024  4.30995e-05 -6.30695e-06 
         950     0.912043     0.265854  4.72103e-05 -6.30225e-06 
         950     0.953966     0.277932  5.16018e-05 -6.29743e-06 
         950     0.996849     0.290259  5.62872e-05  -6.2925e-06 
         950      1.04066     0.302821  6.12734e-05 -6.28745e-06 
         950      1.08541     0.315619  6.65733e-05 -6.28227e-06 
         950      1.13112     0.328652  7.21996e-05 -6.27698e-06 
         950      1.17775     0.341904  7.81583e-05 -6.27155e-06 
         950      1.22533     0.355374  8.44611e-05   -6.266e-06 
         950      1.27384     0.369055  9.11179e-05 -6.26031e-06 
         950      1.32333     0.382944  9.81405e-05 -6.25449e-06 
         950      1.37373     0.397022  0.000105532 -6.24852e-06 
         950      1.42507     0.411286  0.000113302 -6.24241e-06 
         950      1.47736     0.425725  0.000121459 -6.23615e-06 
         950      1.53061     0.440336  0.000130012 -6.22973e-06 
         950      1.58478     0.455094  0.000138958 -6.22315e-06 
         950      1.63989     0.469992  0.000148307 -6.21639e-06 
         950      1.69595     0.485018  0.000158059 -6.20946e-06 
         950      1.75297     0.500164  0.000168222 -6.20234e-06 
         950      1.81091     0.515402  0.000178786 -6.19504e-06 
         950      1.86979     0.530722  0.000189755 -6.18753e-06 
         950      1.92964     0.546113   0.00020113 -6.17981e-06 
         950       1.9904     0.561544  0.000212896 -6.17188e-06 
         950      2.05211     0.577004  0.000225051 -6.16371e-06 
         950      2.11476     0.592471  0.000237586  -6.1553e-06 
         950      2.17838     0.607932  0.000250494 -6.14664e-06 
         950      2.24291     0.623352  0.000263752  -6.1377e-06 
         950      2.30839     0.638715  0.000277348 -6.12849e-06 
         950       2.3748     0.653998  0.000291266 -6.11899e-06 
         950      2.44219     0.669183  0.000305488  -6.1092e-06 
         950      2.51049     0.684234  0.000319981  -6.0991e-06 
         950      2.57974     0.699131  0.000334725 -6.08868e-06 
         950      2.64993     0.713851  0.000349691 -6.07791e-06 
         950      2.72108     0.728372  0.000364854 -6.06673e-06 
         950      2.79315     0.742659   0.00038017 -6.05528e-06 
         950      2.86617     0.756693  0.000395609 -6.04346e-06 
         950      2.94012     0.770447  0.000411134 -6.03123e-06 
         950      3.01505     0.783904  0.000426712  -6.0186e-06 
         950      3.09089     0.797029  0.000442289 -6.00551e-06 
         950      3.16767     0.809804  0.000457831 -5.99193e-06 
         950      3.24542     0.822214  0.000473301 -5.97784e-06 
         950      3.32409     0.834228  0.000488641 -5.96326e-06 
         950       3.4037     0.845831  0.000503815 -5.94837e-06 
         950      3.48425     0.857008  0.000518778 -5.93313e-06 
         950      3.56577     0.867747  0.000533492 -5.91749e-06 
         950       3.6482     0.878026  0.000547904 -5.90139e-06 
         950      3.73158     0.887839  0.000561979 -5.88475e-06 
         950       3.8159     0.897177  0.000575678 -5.86756e-06 
         950      3.90119     0.906038  0.000588966 -5.85016e-06 
         950       3.9874      0.91441  0.000601804 -5.83187e-06 
         950      4.07454     0.922297   0.00061416 -5.81325e-06 
         950      4.16263     0.929699   0.00062601 -5.79425e-06 
         950      4.25169     0.936624  0.000637335 -5.77489e-06 
         950      4.34166     0.943072  0.000648105 -5.75514e-06 
         950      4.43258     0.949055  0.000658309  -5.7349e-06 
         950      4.52447     0.954587  0.000667938 -5.71415e-06 
         950      4.61726     0.959675  0.000676978 -5.69298e-06 
         950        4.711     0.964338  0.000685432 -5.67156e-06 
         950      4.80569     0.968593  0.000693303 -5.64983e-06 
         950      4.90135     0.972458  0.000700596  -5.6268e-06 
         950      4.99791     0.975952  0.000707318 -5.60339e-06 
         950      5.09542     0.979096  0.000713486 -5.58038e-06 
         950      5.19387     0.981911  0.000719117 -5.55743e-06 
         950       5.2933      0.98442  0.000724234 -5.53406e-06 
         950      5.39364     0.986645  0.000728856 -5.50964e-06 
         950      5.49491     0.988606  0.000733009 -5.48626e-06 
         950      5.59713     0.990327  0.000736722 -5.46162e-06 
         950      5.70033      0.99183  0.000740024 -5.43653e-06 
         950      5.80443     0.993133  0.000742941 -5.41134e-06 
         950      5.90948     0.994257  0.000745504 -5.38607e-06 
         950      6.01551     0.995223  0.000747745 -5.36059e-06 
         950      6.12244     0.996046   0.00074969 -5.33478e-06 
         950      6.23031     0.996744   0.00075137 -5.30857e-06 
         950      6.33912     0.997332  0.000752811 -5.28198e-06 
         950      6.44892     0.997824  0.000754039 -5.25514e-06 
         950      6.55962     0.998234  0.000755079  -5.2282e-06 
         950      6.67126     0.998573  0.000755954 -5.20116e-06 
         950      6.78384     0.998851  0.000756688 -5.17374e-06 
         950      6.89741     0.999078  0.000757296  -5.1451e-06 
         950      7.01187     0.999262  0.000757799 -5.11735e-06 
         950      7.12728      0.99941   0.00075821 -5.08966e-06 
         950      7.24363     0.999529  0.000758548 -5.06036e-06 
         950      7.36097     0.999623  0.000758815 -5.03185e-06 
         950       7.4792     0.999697  0.000759033  -5.0031e-06 
         950      7.59838     0.999755  0.000759209 -4.97393e-06 
         950      7.71854       0.9998   0.00075935 -4.94449e-06 
         950       7.8396     0.999834   0.00075946 -4.91491e-06 
         950      7.96161     0.999861  0.000759547 -4.88521e-06 
         950      8.08455     0.999881  0.000759614 -4.85545e-06 
         950      8.20849     0.999896  0.000759666 -4.82562e-06 
         950      8.33332     0.999908  0.000759707 -4.79577e-06 
         950      8.45909     0.999916   0.00075974 -4.76588e-06 
         950       8.5858     0.999923  0.000759766 -4.73593e-06 
         950      8.71351     0.999927  0.000759787 -4.70566e-06 
         950       8.8421     0.999931  0.000759805 -4.67492e-06 
         950      8.97164     0.999933  0.000759819 -4.64385e-06 
         950      9.10212     0.999935  0.000759829 -4.61248e-06 
         950       9.2336     0.999936  0.000759838 -4.58082e-06 
         950      9.36596     0.999938  0.000759847 -4.54891e-06 
         950      9.49927     0.999938  0.000759858 -4.51692e-06 
         950      9.63352     0.999939  0.000759865 -4.48531e-06 
         950      9.76877      0.99994  0.000759874 -4.45152e-06 
         950       9.9049      0.99994  0.000759881 -4.41713e-06 
         950       10.042      0.99994  0.000759886 -4.38431e-06 
         950      10.1801     0.999941  0.000759893 -4.35192e-06 
         950       10.319     0.999941  0.000759898  -4.3191e-06 
         950      10.4589     0.999942  0.000759904  -4.2858e-06 
         950      10.5998     0.999942   0.00075991 -4.25207e-06 
         950      10.7416     0.999942  0.000759917   -4.218e-06 
         950      10.8843     0.999943  0.000759924  -4.1837e-06 
         950       11.028     0.999943   0.00075993 -4.14923e-06 
         950      11.1726     0.999943  0.000759937 -4.11459e-06 
         950      11.3182     0.999944  0.000759942 -4.07979e-06 
         950      11.4647     0.999944  0.000759948 -4.04481e-06 
         950      11.6122     0.999944  0.000759954 -4.00959e-06 
         950      11.7605     0.999945   0.00075996 -3.97412e-06 
         950      11.9099     0.999945  0.000759966 -3.93838e-06 
         950      12.0602     0.999945  0.000759973 -3.90244e-06 
         950      12.2114     0.999946   0.00075998 -3.86634e-06 
         950      12.3636     0.999946  0.000759986 -3.83016e-06 
         950      12.5167     0.999946  0.000759992 -3.79393e-06 
         950      12.6707     0.999947  0.000759997  -3.7575e-06 
         950      12.8257     0.999947  0.000760002 -3.72043e-06 
         950      12.9817     0.999947  0.000760008 -3.68357e-06 
         950      13.1386     0.999948  0.000760014 -3.64768e-06 
         950      13.2964     0.999948  0.000760022  -3.6095e-06 
         950      13.4551     0.999948  0.000760028 -3.57085e-06 
         950      13.6149     0.999949  0.000760031 -3.53305e-06 
         950      13.7755     0.999949  0.000760044 -3.49763e-06 
         950      13.9371     0.999949  0.000760041 -3.45807e-06 
         950      14.0996      0.99995  0.000760052 -3.41953e-06 
         950      14.2631      0.99995  0.000760059 -3.38086e-06 
         950      14.4275     0.999951  0.000760064 -3.34192e-06 
         950      14.5928     0.999951  0.000760069 -3.30288e-06 
         950      14.7592     0.999951  0.000760075 -3.26391e-06 
         950      14.9264     0.999952  0.000760082 -3.22496e-06 
         950      15.0946     0.999952  0.000760087 -3.18567e-06 
         950      15.2637     0.999952  0.000760092 -3.14538e-06 
         950      15.4338     0.999953  0.000760096 -3.10326e-06 
         950      15.6048     0.999953  0.000760102 -3.05999e-06 
         950      15.7767     0.999954  0.000760109 -3.01745e-06 
         950      15.9496     0.999954  0.000760116 -2.97509e-06 
         950      16.1235     0.999954   0.00076012 -2.93329e-06 
         950      16.2982     0.999955   0.00076012 -2.89254e-06 
         950      16.4739     0.999955  0.000760123 -2.85296e-06 
         950      16.6506     0.999956   0.00076013 -2.81518e-06 
         950      16.8282     0.999956  0.000760131 -2.77648e-06 
         950      17.0068     0.999956  0.000760141 -2.73541e-06 
         950      17.1862     0.999957  0.000760149 -2.69344e-06 
         950      17.3667     0.999957  0.000760155 -2.65129e-06 
         950      17.5481     0.999958  0.000760157 -2.60917e-06 
         950      17.7304     0.999958   0.00076016 -2.56702e-06 
         950      17.9136     0.999958  0.000760164 -2.52463e-06 
         950      18.0979     0.999959   0.00076017 -2.48183e-06 
         950       18.283     0.999959  0.000760178 -2.43856e-06 
         950      18.4691      0.99996  0.000760186 -2.39485e-06 
         950      18.6561      0.99996  0.000760193 -2.35083e-06 
         950      18.8441      0.99996  0.000760199  -2.3067e-06 
         950       19.033     0.999961  0.000760202 -2.26273e-06 
         950      19.2228     0.999961  0.000760203 -2.21817e-06 
         950      19.4136     0.999962  0.000760203 -2.17348e-06 
         950      19.6054     0.999962  0.000760207 -2.12842e-06 
         950       19.798     0.999963  0.000760215 -2.08254e-06 
         950      19.9917     0.999963  0.000760225  -2.0358e-06 
         950      20.1862     0.999963  0.000760233 -1.98954e-06 
         950      20.3818     0.999964  0.000760231 -1.94755e-06 
         950      20.5782     0.999964  0.000760221 -1.90751e-06 
         950      20.7756     0.999965  0.000760254 -1.85342e-06 
         950       20.974     0.999965  0.000760249 -1.80469e-06 
         950      21.1732     0.999966  0.000760249 -1.75934e-06 
         950      21.3734     0.999966  0.000760256 -1.71497e-06 
         950      21.5745     0.999967   0.00076026 -1.67035e-06 
         950      21.7767     0.999967  0.000760265 -1.62601e-06 
         950      21.9797     0.999967  0.000760264 -1.58036e-06 
         950      22.1837     0.999968  0.000760262 -1.53339e-06 
         950      22.3886     0.999968  0.000760263 -1.48544e-06 
         950      22.5945     0.999969  0.000760268 -1.43678e-06 
         950      22.8013     0.999969  0.000760276 -1.38773e-06 
         950      23.0091      0.99997  0.000760286 -1.33853e-06 
         950      23.2177      0.99997  0.000760294  -1.2894e-06 
         950      23.4274     0.999971  0.000760298 -1.24048e-06 
         950       23.638     0.999971  0.000760297 -1.19192e-06 
         950      23.8495     0.999972  0.000760292  -1.1437e-06 
         950       24.062     0.999972  0.000760287 -1.09572e-06 
         950      24.2754     0.999973  0.000760283 -1.04784e-06 
         950      24.4897     0.999973  0.000760286 -9.99774e-07 
         950       24.705     0.999974  0.000760294 -9.51215e-07 
         950      24.9213     0.999974  0.000760308 -9.01844e-07 
         950      25.1385     0.999975  0.000760321 -8.51519e-07 
         950      25.3566     0.999975  0.000760327 -8.00288e-07 
         950      25.5756     0.999975  0.000760319 -7.48661e-07 
         950      25.7957     0.999976  0.000760304 -6.97819e-07 
         950      26.0166     0.999976  0.000760307 -6.50013e-07 
         950      26.2385     0.999977  0.000760331 -6.01742e-07 
         950      26.4613     0.999977  0.000760306  -5.4543e-07 
         950      26.6851     0.999978  0.000760317 -4.92735e-07 
         950      26.9098     0.999978  0.000760333 -4.41584e-07 
         950      27.1354     0.999979  0.000760339 -3.90994e-07 
         950      27.3621     0.999979  0.000760335 -3.40288e-07 
         950      27.5896      0.99998  0.000760325  -2.8828e-07 
         950      27.8181      0.99998  0.000760319   -2.322e-07 
         950      28.0475     0.999981  0.000760323 -1.71017e-07 
         950      28.2779     0.999981  0.000760317 -1.29323e-07 
         950      28.5092     0.999982  0.000760326 -7.95924e-08 
         950      28.7414     0.999983   0.00076034 -2.48611e-08 
         950      28.9746     0.999983   0.00076035  3.22603e-08 
         950      29.2088     0.999983  0.000760351  8.97409e-08 
         950      29.4439     0.999984  0.000760343  1.46133e-07 
         950      29.6799     0.999984   0.00076033  2.00768e-07 
         950      29.9168     0.999985  0.000760317  2.53674e-07 
         950      30.1548     0.999986  0.000760311  3.05541e-07 
         950      30.3936     0.999986  0.000760316  3.57487e-07 
         950      30.6334     0.999987  0.000760327  4.10903e-07 
         950      30.8742     0.999987  0.000760336   4.6698e-07 
         950      31.1158     0.999988  0.000760333  5.26067e-07 
         950      31.3584     0.999988  0.000760314  5.87034e-07 
         950       31.602     0.999989  0.000760301  6.46201e-07 
         950      31.8465     0.999989  0.000760375  6.96136e-07 
         950      32.0919      0.99999  0.000760309  7.60177e-07 
         950      32.3383      0.99999  0.000760312   8.1738e-07 
         950      32.5856     0.999991   0.00076033  8.71964e-07 
         950       32.834     0.999992  0.000760338  9.27016e-07 
         950      33.0831     0.999992  0.000760332  9.83606e-07 
         950      33.3333     0.999993  0.000760319   1.0417e-06 
         950      33.5843     0.999993  0.000760306   1.1007e-06 
         950      33.8364     0.999994    0.0007603     1.16e-06 
         950      34.0894     0.999994  0.000760302  1.21919e-06 
         950      34.3433     0.999995  0.000760309  1.27831e-06 
         950      34.5981     0.999995  0.000760318  1.33764e-06 
         950       34.854     0.999996  0.000760323  1.39741e-06 
         950      35.1107     0.999996   0.00076032  1.45705e-06 
         950      35.3684     0.999997  0.000760307   1.5156e-06 
         950      35.6271     0.999998  0.000760285  1.58049e-06 
         950      35.8867     0.999998  0.000760269  1.64118e-06 
         950      36.1472     0.999999  0.000760262  1.69899e-06 
         950      36.4086     0.999999  0.000760268  1.75573e-06 
         950      36.6711            1  0.000760283  1.81347e-06 
         950      36.9344            1  0.000760293  1.87388e-06 
         950      37.1987            1  0.000760286  1.93766e-06 
         950      37.4639            1  0.000760256  2.00344e-06 
         950      37.7301            1  0.000760232  2.06666e-06 
         950      37.9972            1  0.000760307  2.11805e-06 
         950      38.2652            1  0.000760234   2.1869e-06 
         950      38.5342            1  0.000760213  2.25486e-06 
         950      38.8042            1  0.000760231  2.31833e-06 
         950      39.0751      1.00001  0.000760249  2.37911e-06 
         950      39.3469      1.00001  0.000760253  2.43879e-06 
         950      39.6197      1.00001  0.000760241  2.49861e-06 
         950      39.8934      1.00001   0.00076022  2.55943e-06 
         950       40.168      1.00001  0.000760197  2.62188e-06 
         950      40.4436      1.00001  0.000760178  2.68623e-06 
         950      40.7202      1.00001  0.000760165  2.75255e-06 
         950      40.9977      1.00001  0.000760161  2.82059e-06 
         950      41.2761      1.00001  0.000760161  2.88998e-06 
         950      41.5554      1.00001  0.000760163  2.96022e-06 
         950      41.8358      1.00001  0.000760164  3.03076e-06 
         950       42.117      1.00001  0.000760159  3.10093e-06 
         950      42.3992      1.00001  0.000760149  3.17021e-06 
         950      42.6823      1.00001  0.000760133  3.23816e-06 
         950      42.9664      1.00001  0.000760115   3.3045e-06 
         950      43.2514      1.00001  0.000760099   3.3691e-06 
         950      43.5373      1.00001  0.000760088  3.43216e-06 
         950      43.8243      1.00002  0.000760085  3.49412e-06 
         950      44.1121      1.00002   0.00076009  3.55567e-06 
         950      44.4009      1.00002  0.000760098  3.61782e-06 
         950      44.6906      1.00002  0.000760101   3.6818e-06 
         950      44.9813      1.00002  0.000760089  3.74907e-06 
         950      45.2729      1.00002  0.000760053  3.82111e-06 
         950      45.5654      1.00002  0.000759992  3.89943e-06 
         950      45.8589      1.00002  0.000759934  3.98553e-06 
         950      46.1534      1.00002  0.000760203  4.10809e-06 
         950      46.4488      1.00002  0.000759954  4.10022e-06 
         950      46.7451      1.00002  0.000759933  4.16993e-06 
         950      47.0423      1.00002  0.000759934   4.2451e-06 
         950      47.3406      1.00002  0.000759941  4.32362e-06 
         950      47.6397      1.00002  0.000759945  4.40373e-06 
         950      47.9398      1.00002  0.000759944  4.48415e-06 
         950      48.2409      1.00003  0.000759935  4.56401e-06 
         950      48.5428      1.00003   0.00075992  4.64263e-06 
         950      48.8457      1.00003  0.000759901  4.71971e-06 
         950      49.1496      1.00003   0.00075988  4.79517e-06 
         950      49.4545      1.00003   0.00075986  4.86911e-06 
         950      49.7602      1.00003  0.000759841  4.94173e-06 
         950      50.0668      1.00003  0.000759823  5.01337e-06 
         950      50.3744      1.00003  0.000759808  5.08447e-06 
         950      50.6831      1.00003  0.000759795  5.15546e-06 
         950      50.9926      1.00003  0.000759782  5.22674e-06 
         950       51.303      1.00003  0.000759769  5.29871e-06 
         950      51.6144      1.00003  0.000759756  5.37172e-06 
         950      51.9268      1.00003   0.00075974  5.44602e-06 
         950        52.24      1.00003  0.000759722  5.52173e-06 
         950      52.5542      1.00004  0.000759702   5.5989e-06 
         950      52.8694      1.00004  0.000759681  5.67745e-06 
         950      53.1856      1.00004  0.000759658  5.75725e-06 
         950      53.5026      1.00004  0.000759636  5.83796e-06 
         950      53.8205      1.00004  0.000759615  5.91925e-06 
         950      54.1396      1.00004  0.000759596  6.00077e-06 
         950      54.4594      1.00004   0.00075958  6.08208e-06 
         950      54.7802      1.00004  0.000759566   6.1629e-06 
         950      55.1019      1.00004  0.000759554  6.24303e-06 
         950      55.4247      1.00004  0.000759541  6.32252e-06 
         950      55.7483      1.00004  0.000759525  6.40167e-06 
         950      56.0729      1.00004  0.000759504  6.48126e-06 
         950      56.3984      1.00004  0.000759477  6.56262e-06 
         950       56.725      1.00004  0.000759445  6.64786e-06 
         950      57.0523      1.00005  0.000759412  6.73984e-06 
         950      57.3807      1.00005  0.000759392  6.84262e-06 
         950      57.7099      1.00005  0.000759368  6.94239e-06 
         950      58.0403      1.00005  0.000759347  7.01926e-06 
         950      58.3714      1.00005  0.000759375  7.09133e-06 
         950      58.7035      1.00005  0.000759358  7.16177e-06 
         950      59.0367      1.00005  0.000759268  7.24524e-06 
         950      59.3707      1.00005  0.000759283  7.34146e-06 
         950      59.7056      1.00005  0.000759279  7.43908e-06 
         950      60.0414      1.00005  0.000759262  7.53606e-06 
         950      60.3784      1.00005  0.000759238  7.63126e-06 
         950      60.7161      1.00005   0.00075921  7.72411e-06 
         950      61.0548      1.00005   0.00075918  7.81464e-06 
         950      61.3944      1.00005   0.00075915  7.90322e-06 
         950      61.7351      1.00006  0.000759122  7.99045e-06 
         950      62.0767      1.00006  0.000759095  8.07695e-06 
         950      62.4191      1.00006  0.000759071  8.16347e-06 
         950      62.7625      1.00006  0.000759049  8.25068e-06 
         950       63.107      1.00006  0.000759028  8.33917e-06 
         950      63.4523      1.00006  0.000759009   8.4293e-06 
         950      63.7985      1.00006   0.00075899  8.52137e-06 
         950      64.1458      1.00006   0.00075897   8.6155e-06 
         950      64.4939      1.00006  0.000758949  8.71156e-06 
         950       64.843      1.00006  0.000758927  8.80937e-06 
         950      65.1929      1.00006  0.000758903   8.9086e-06 
         950       65.544      1.00006  0.000758877  9.00889e-06 
         950      65.8959      1.00006  0.000758849  9.10968e-06 
         950      66.2487      1.00007  0.000758819  9.21057e-06 
         950      66.6025      1.00007  0.000758787  9.31113e-06 
         950      66.9573      1.00007  0.000758754  9.41106e-06 
         950       67.313      1.00007   0.00075872  9.51009e-06 
         950      67.6695      1.00007  0.000758687  9.60819e-06 
         950      68.0271      1.00007  0.000758655  9.70547e-06 
         950      68.3857      1.00007  0.000758624  9.80226e-06 
         950      68.7451      1.00007  0.000758595  9.89892e-06 
         950      69.1055      1.00007   0.00075857  9.99608e-06 
         950      69.4669      1.00007  0.000758547  1.00944e-05 
         950      69.8291      1.00007  0.000758526  1.01945e-05 
         950      70.1923      1.00008  0.000758507  1.02968e-05 
         950      70.5564      1.00008   0.00075849  1.04014e-05 
         950      70.9217      1.00008  0.000758471  1.05081e-05 
         950      71.2877      1.00008  0.000758449  1.06155e-05 
         950      71.6546      1.00008  0.000758421  1.07215e-05 
         950      72.0225      1.00008  0.000758384  1.08222e-05 
         950      72.3915      1.00008  0.000758333   1.0912e-05 
         950      72.7613      1.00008  0.000758264  1.09825e-05 
         950       73.132      1.00008  0.000758173  1.10226e-05 
         950      73.5036      1.00007  0.000758226  1.11817e-05 
         950      73.8764      1.00007  0.000758308  1.13456e-05 
         950      74.2499      1.00005  0.000758352  1.14544e-05 
         950      74.6244      1.00003  0.000758329  1.14911e-05 
         950           75            1  0.000758207  1.14324e-05 
