Variables = x, y, u, v, p

Zone, I=400, F=POINT
         700            0  1.91926e-15  6.04398e-29 -1.17129e-05 
         700     0.000471  0.000153487  1.74106e-11 -1.17128e-05 
         700     0.001884  0.000613949   2.7857e-10 -1.17126e-05 
         700     0.004239   0.00138139  1.41026e-09 -1.17123e-05 
         700     0.007537   0.00245612  4.45831e-09 -1.17117e-05 
         700     0.011776   0.00383751  1.08835e-08 -1.17111e-05 
         700     0.016958    0.0055262  2.25695e-08 -1.17103e-05 
         700     0.023081   0.00752153  4.18103e-08 -1.17093e-05 
         700      0.03015   0.00982515  7.13425e-08 -1.17082e-05 
         700     0.038157    0.0124344  1.14267e-07 -1.17069e-05 
         700     0.047107     0.015351  1.74159e-07 -1.17055e-05 
         700     0.056999    0.0185746  2.54982e-07  -1.1704e-05 
         700     0.067837    0.0221064  3.61167e-07 -1.17023e-05 
         700     0.079614    0.0259442  4.97454e-07 -1.17004e-05 
         700     0.092332    0.0300887   6.6908e-07 -1.16984e-05 
         700     0.105992      0.03454  8.81695e-07 -1.16963e-05 
         700       0.1206    0.0393003  1.14147e-06  -1.1694e-05 
         700     0.136145    0.0443658  1.45469e-06 -1.16916e-05 
         700     0.152631    0.0497378  1.82831e-06  -1.1689e-05 
         700     0.170067    0.0554192  2.26986e-06 -1.16862e-05 
         700     0.188438     0.061405  2.78669e-06 -1.16833e-05 
         700     0.207751    0.0676974   3.3871e-06 -1.16803e-05 
         700     0.228006    0.0742963  4.07964e-06 -1.16771e-05 
         700     0.249212    0.0812045  4.87362e-06 -1.16738e-05 
         700     0.271351    0.0884158  5.77773e-06 -1.16703e-05 
         700     0.294433    0.0959333  6.80211e-06 -1.16667e-05 
         700     0.318456     0.103756  7.95682e-06 -1.16629e-05 
         700     0.343432     0.111888  9.25308e-06  -1.1659e-05 
         700     0.369339      0.12032  1.07007e-05 -1.16549e-05 
         700     0.396189     0.129057  1.23116e-05 -1.16507e-05 
         700     0.423981     0.138098  1.40974e-05 -1.16463e-05 
         700     0.452726     0.147445   1.6071e-05 -1.16418e-05 
         700     0.482403      0.15709  1.82434e-05 -1.16371e-05 
         700     0.513021     0.167036  2.06278e-05 -1.16322e-05 
         700     0.544594     0.177286  2.32386e-05 -1.16273e-05 
         700     0.577096     0.187829  2.60869e-05 -1.16221e-05 
         700     0.610541     0.198668  2.91876e-05 -1.16168e-05 
         700     0.644927     0.209802  3.25541e-05 -1.16113e-05 
         700      0.68027     0.221233  3.62025e-05 -1.16057e-05 
         700     0.716541     0.232948  4.01438e-05 -1.15999e-05 
         700     0.753754      0.24495   4.4394e-05 -1.15939e-05 
         700     0.791909     0.257235  4.89675e-05 -1.15878e-05 
         700     0.831022     0.269805  5.38808e-05 -1.15815e-05 
         700     0.871061     0.282645  5.91445e-05  -1.1575e-05 
         700     0.912043     0.295755  6.47751e-05 -1.15683e-05 
         700     0.953966      0.30913  7.07865e-05 -1.15615e-05 
         700     0.996849     0.322771  7.71957e-05 -1.15544e-05 
         700      1.04066     0.336658  8.40109e-05 -1.15472e-05 
         700      1.08541     0.350791  9.12482e-05 -1.15397e-05 
         700      1.13112     0.365168  9.89232e-05  -1.1532e-05 
         700      1.17775     0.379767  0.000107042 -1.15241e-05 
         700      1.22533     0.394586  0.000115619  -1.1516e-05 
         700      1.27384     0.409612  0.000124665 -1.15076e-05 
         700      1.32333     0.424842  0.000134192  -1.1499e-05 
         700      1.37373     0.440251  0.000144201 -1.14901e-05 
         700      1.42507      0.45583  0.000154704  -1.1481e-05 
         700      1.47736     0.471565  0.000165704 -1.14715e-05 
         700      1.53061     0.487448  0.000177211 -1.14617e-05 
         700      1.58478     0.503447  0.000189217 -1.14517e-05 
         700      1.63989     0.519553  0.000201726 -1.14412e-05 
         700      1.69595     0.535744  0.000214736 -1.14305e-05 
         700      1.75297     0.552008  0.000228247 -1.14193e-05 
         700      1.81091     0.568309  0.000242241 -1.14078e-05 
         700      1.86979     0.584632  0.000256712 -1.13958e-05 
         700      1.92964      0.60096  0.000271654 -1.13835e-05 
         700       1.9904     0.617253  0.000287038 -1.13706e-05 
         700      2.05211     0.633493  0.000302851 -1.13573e-05 
         700      2.11476     0.649652   0.00031907 -1.13435e-05 
         700      2.17838     0.665709  0.000335675 -1.13292e-05 
         700      2.24291     0.681624  0.000352624 -1.13143e-05 
         700      2.30839     0.697373  0.000369889 -1.12988e-05 
         700       2.3748     0.712926  0.000387434 -1.12828e-05 
         700      2.44219     0.728261  0.000405227 -1.12661e-05 
         700      2.51049     0.743335   0.00042321 -1.12488e-05 
         700      2.57974     0.758125  0.000441344 -1.12309e-05 
         700      2.64993     0.772602  0.000459581 -1.12122e-05 
         700      2.72108     0.786743  0.000477875 -1.11929e-05 
         700      2.79315     0.800508  0.000496159 -1.11728e-05 
         700      2.86617     0.813878  0.000514385  -1.1152e-05 
         700      2.94012     0.826828  0.000532496 -1.11305e-05 
         700      3.01505     0.839338  0.000550441 -1.11082e-05 
         700      3.09089     0.851378   0.00056815 -1.10851e-05 
         700      3.16767     0.862935  0.000585572 -1.10612e-05 
         700      3.24542     0.873994  0.000602656 -1.10365e-05 
         700      3.32409     0.884535  0.000619335 -1.10111e-05 
         700       3.4037     0.894549  0.000635565 -1.09849e-05 
         700      3.48425      0.90403  0.000651295 -1.09579e-05 
         700      3.56577     0.912974  0.000666485 -1.09301e-05 
         700       3.6482     0.921375  0.000681082 -1.09015e-05 
         700      3.73158     0.929235  0.000695054 -1.08722e-05 
         700       3.8159      0.93656  0.000708372  -1.0842e-05 
         700      3.90119      0.94336  0.000721012  -1.0811e-05 
         700       3.9874     0.949639  0.000732943 -1.07796e-05 
         700      4.07454     0.955414  0.000744159 -1.07469e-05 
         700      4.16263     0.960701  0.000754649  -1.0714e-05 
         700      4.25169      0.96552  0.000764416 -1.06805e-05 
         700      4.34166     0.969886  0.000773455 -1.06458e-05 
         700      4.43258     0.973825   0.00078178 -1.06107e-05 
         700      4.52447     0.977361  0.000789411  -1.0575e-05 
         700      4.61726     0.980517   0.00079636 -1.05387e-05 
         700        4.711     0.983318  0.000802655 -1.05019e-05 
         700      4.80569     0.985791  0.000808324 -1.04646e-05 
         700      4.90135     0.987963  0.000813403 -1.04267e-05 
         700      4.99791     0.989857  0.000817921 -1.03883e-05 
         700      5.09542     0.991501  0.000821917 -1.03492e-05 
         700      5.19387     0.992918  0.000825431 -1.03097e-05 
         700       5.2933     0.994132    0.0008285 -1.02697e-05 
         700      5.39364     0.995166  0.000831162 -1.02294e-05 
         700      5.49491      0.99604  0.000833455 -1.01886e-05 
         700      5.59713     0.996775   0.00083542 -1.01471e-05 
         700      5.70033     0.997388  0.000837088 -1.01056e-05 
         700      5.80443     0.997896  0.000838497 -1.00633e-05 
         700      5.90948     0.998314  0.000839678 -1.00205e-05 
         700      6.01551     0.998656  0.000840661 -9.97747e-06 
         700      6.12244     0.998933  0.000841472 -9.93413e-06 
         700      6.23031     0.999156  0.000842137 -9.89038e-06 
         700      6.33912     0.999334  0.000842676 -9.84613e-06 
         700      6.44892     0.999475  0.000843112 -9.80138e-06 
         700      6.55962     0.999586  0.000843462 -9.75645e-06 
         700      6.67126     0.999672  0.000843739 -9.71098e-06 
         700      6.78384     0.999739  0.000843958 -9.66485e-06 
         700      6.89741     0.999791  0.000844129 -9.61852e-06 
         700      7.01187      0.99983  0.000844262 -9.57192e-06 
         700      7.12728      0.99986  0.000844364 -9.52497e-06 
         700      7.24363     0.999882  0.000844442 -9.47763e-06 
         700      7.36097     0.999898  0.000844501 -9.42986e-06 
         700       7.4792      0.99991  0.000844545 -9.38171e-06 
         700      7.59838     0.999919  0.000844579 -9.33324e-06 
         700      7.71854     0.999926  0.000844604 -9.28444e-06 
         700       7.8396      0.99993  0.000844623 -9.23503e-06 
         700      7.96161     0.999934  0.000844638 -9.18531e-06 
         700      8.08455     0.999936  0.000844648 -9.13522e-06 
         700      8.20849     0.999938  0.000844656 -9.08474e-06 
         700      8.33332     0.999939  0.000844662  -9.0339e-06 
         700      8.45909      0.99994  0.000844667 -8.98269e-06 
         700       8.5858     0.999941  0.000844672 -8.93109e-06 
         700      8.71351     0.999942  0.000844675 -8.87905e-06 
         700       8.8421     0.999942  0.000844678 -8.82663e-06 
         700      8.97164     0.999943  0.000844681 -8.77383e-06 
         700      9.10212     0.999943  0.000844683 -8.72064e-06 
         700       9.2336     0.999943  0.000844687 -8.66704e-06 
         700      9.36596     0.999944  0.000844689 -8.61314e-06 
         700      9.49927     0.999944  0.000844692 -8.55888e-06 
         700      9.63352     0.999944  0.000844693 -8.50426e-06 
         700      9.76877     0.999944  0.000844695 -8.44925e-06 
         700       9.9049     0.999945  0.000844698 -8.39389e-06 
         700       10.042     0.999945  0.000844702 -8.33809e-06 
         700      10.1801     0.999945  0.000844702 -8.28162e-06 
         700       10.319     0.999946  0.000844707 -8.22494e-06 
         700      10.4589     0.999946  0.000844708 -8.16769e-06 
         700      10.5998     0.999946   0.00084471 -8.11011e-06 
         700      10.7416     0.999947  0.000844714 -8.05225e-06 
         700      10.8843     0.999947  0.000844717 -7.99412e-06 
         700       11.028     0.999947  0.000844719 -7.93562e-06 
         700      11.1726     0.999947   0.00084472 -7.87672e-06 
         700      11.3182     0.999948  0.000844721 -7.81741e-06 
         700      11.4647     0.999948  0.000844724  -7.7578e-06 
         700      11.6122     0.999948  0.000844728 -7.69788e-06 
         700      11.7605     0.999949  0.000844732 -7.63758e-06 
         700      11.9099     0.999949  0.000844735 -7.57663e-06 
         700      12.0602     0.999949  0.000844734 -7.51461e-06 
         700      12.2114      0.99995  0.000844737 -7.45388e-06 
         700      12.3636      0.99995  0.000844739 -7.39228e-06 
         700      12.5167      0.99995  0.000844742 -7.32992e-06 
         700      12.6707     0.999951  0.000844747 -7.26676e-06 
         700      12.8257     0.999951  0.000844747 -7.20253e-06 
         700      12.9817     0.999951  0.000844749 -7.13939e-06 
         700      13.1386     0.999952  0.000844747 -7.07599e-06 
         700      13.2964     0.999952  0.000844747 -7.01197e-06 
         700      13.4551     0.999952   0.00084475 -6.94732e-06 
         700      13.6149     0.999953  0.000844756 -6.88203e-06 
         700      13.7755     0.999953  0.000844762 -6.81671e-06 
         700      13.9371     0.999953  0.000844766 -6.75105e-06 
         700      14.0996     0.999954  0.000844768 -6.68475e-06 
         700      14.2631     0.999954  0.000844767 -6.61804e-06 
         700      14.4275     0.999954  0.000844766 -6.55109e-06 
         700      14.5928     0.999955  0.000844768 -6.48385e-06 
         700      14.7592     0.999955  0.000844773 -6.41619e-06 
         700      14.9264     0.999955  0.000844778 -6.34807e-06 
         700      15.0946     0.999956  0.000844782 -6.27944e-06 
         700      15.2637     0.999956  0.000844783 -6.21036e-06 
         700      15.4338     0.999956  0.000844782 -6.14098e-06 
         700      15.6048     0.999957  0.000844783  -6.0715e-06 
         700      15.7767     0.999957  0.000844789 -6.00187e-06 
         700      15.9496     0.999957  0.000844793  -5.9315e-06 
         700      16.1235     0.999958  0.000844792 -5.86025e-06 
         700      16.2982     0.999958  0.000844798 -5.78923e-06 
         700      16.4739     0.999958  0.000844793 -5.71734e-06 
         700      16.6506     0.999959  0.000844793 -5.64499e-06 
         700      16.8282     0.999959  0.000844799 -5.57233e-06 
         700      17.0068      0.99996  0.000844807 -5.49945e-06 
         700      17.1862      0.99996  0.000844812 -5.42629e-06 
         700      17.3667      0.99996  0.000844813 -5.35275e-06 
         700      17.5481     0.999961   0.00084481 -5.27891e-06 
         700      17.7304     0.999961  0.000844809 -5.20398e-06 
         700      17.9136     0.999961  0.000844811 -5.12909e-06 
         700      18.0979     0.999962  0.000844814 -5.05422e-06 
         700       18.283     0.999962  0.000844817 -4.97911e-06 
         700      18.4691     0.999963  0.000844821 -4.90354e-06 
         700      18.6561     0.999963  0.000844825 -4.82747e-06 
         700      18.8441     0.999963  0.000844828 -4.75089e-06 
         700       19.033     0.999964  0.000844831 -4.67398e-06 
         700      19.2228     0.999964  0.000844833 -4.59683e-06 
         700      19.4136     0.999965  0.000844835  -4.5195e-06 
         700      19.6054     0.999965  0.000844837 -4.44189e-06 
         700       19.798     0.999965  0.000844839 -4.36373e-06 
         700      19.9917     0.999966   0.00084484 -4.28425e-06 
         700      20.1862     0.999966   0.00084484   -4.204e-06 
         700      20.3818     0.999967  0.000844849 -4.12401e-06 
         700      20.5782     0.999967  0.000844854 -4.04229e-06 
         700      20.7756     0.999967  0.000844854 -3.96044e-06 
         700       20.974     0.999968   0.00084485 -3.87916e-06 
         700      21.1732     0.999968  0.000844848 -3.79859e-06 
         700      21.3734     0.999969  0.000844849 -3.71836e-06 
         700      21.5745     0.999969  0.000844853 -3.63794e-06 
         700      21.7767     0.999969  0.000844858 -3.55677e-06 
         700      21.9797      0.99997  0.000844864 -3.47452e-06 
         700      22.1837      0.99997  0.000844867 -3.39102e-06 
         700      22.3886     0.999971  0.000844868 -3.30644e-06 
         700      22.5945     0.999971  0.000844866 -3.22127e-06 
         700      22.8013     0.999971  0.000844862 -3.13637e-06 
         700      23.0091     0.999972  0.000844856 -3.05272e-06 
         700      23.2177     0.999972  0.000844862 -2.96658e-06 
         700      23.4274     0.999973  0.000844874 -2.88016e-06 
         700       23.638     0.999973  0.000844886 -2.79463e-06 
         700      23.8495     0.999974  0.000844895 -2.70922e-06 
         700       24.062     0.999974  0.000844895 -2.62321e-06 
         700      24.2754     0.999974  0.000844884  -2.5363e-06 
         700      24.4897     0.999975   0.00084487 -2.44869e-06 
         700       24.705     0.999975  0.000844882 -2.36162e-06 
         700      24.9213     0.999976  0.000844901 -2.27712e-06 
         700      25.1385     0.999976  0.000844876 -2.18951e-06 
         700      25.3566     0.999977  0.000844884 -2.09892e-06 
         700      25.5756     0.999977  0.000844899 -2.00743e-06 
         700      25.7957     0.999978  0.000844908 -1.91612e-06 
         700      26.0166     0.999978   0.00084491 -1.82551e-06 
         700      26.2385     0.999979  0.000844906 -1.73559e-06 
         700      26.4613     0.999979  0.000844899  -1.6463e-06 
         700      26.6851     0.999979  0.000844893  -1.5576e-06 
         700      26.9098      0.99998  0.000844889 -1.46987e-06 
         700      27.1354      0.99998  0.000844895  -1.3745e-06 
         700      27.3621     0.999981  0.000844904 -1.28051e-06 
         700      27.5896     0.999981  0.000844913 -1.18703e-06 
         700      27.8181     0.999982  0.000844917 -1.09332e-06 
         700      28.0475     0.999982  0.000844916 -9.99079e-07 
         700      28.2779     0.999983  0.000844911 -9.04266e-07 
         700      28.5092     0.999983  0.000844907 -8.09047e-07 
         700      28.7414     0.999984  0.000844908  -7.1346e-07 
         700      28.9746     0.999984  0.000844915 -6.17483e-07 
         700      29.2088     0.999985  0.000844928 -5.20957e-07 
         700      29.4439     0.999985  0.000844939 -4.23863e-07 
         700      29.6799     0.999986  0.000844936 -3.26333e-07 
         700      29.9168     0.999986  0.000844916 -2.29245e-07 
         700      30.1548     0.999986  0.000844898 -1.34789e-07 
         700      30.3936     0.999987  0.000844954 -4.72719e-08 
         700      30.6334     0.999987  0.000844904  5.19987e-08 
         700      30.8742     0.999988  0.000844918  1.49796e-07 
         700      31.1158     0.999988  0.000844941  2.48683e-07 
         700      31.3584     0.999989  0.000844951  3.48638e-07 
         700       31.602     0.999989  0.000844946   4.4875e-07 
         700      31.8465      0.99999  0.000844934  5.50417e-07 
         700      32.0919      0.99999  0.000844931   6.6183e-07 
         700      32.3383     0.999991  0.000844923   7.5359e-07 
         700      32.5856     0.999991  0.000844919  8.47644e-07 
         700       32.834     0.999992  0.000844922  9.46695e-07 
         700      33.0831     0.999992  0.000844931  1.04903e-06 
         700      33.3333     0.999993  0.000844942  1.15336e-06 
         700      33.5843     0.999993  0.000844952  1.25869e-06 
         700      33.8364     0.999994  0.000844959   1.3643e-06 
         700      34.0894     0.999994   0.00084496  1.46963e-06 
         700      34.3433     0.999995  0.000844957  1.57446e-06 
         700      34.5981     0.999996   0.00084495   1.6787e-06 
         700       34.854     0.999996   0.00084494  1.78248e-06 
         700      35.1107     0.999997   0.00084493  1.88595e-06 
         700      35.3684     0.999997  0.000844922  1.98946e-06 
         700      35.6271     0.999998  0.000844918   2.0934e-06 
         700      35.8867     0.999998   0.00084492   2.1981e-06 
         700      36.1472     0.999999  0.000844927  2.30392e-06 
         700      36.4086     0.999999  0.000844939  2.41114e-06 
         700      36.6711            1  0.000844953  2.51994e-06 
         700      36.9344            1  0.000844965  2.63017e-06 
         700      37.1987            1  0.000844972  2.74154e-06 
         700      37.4639            1  0.000844971  2.85341e-06 
         700      37.7301            1   0.00084496  2.96477e-06 
         700      37.9972            1  0.000844942  3.07398e-06 
         700      38.2652            1  0.000844928  3.17897e-06 
         700      38.5342            1  0.000844938  3.27692e-06 
         700      38.8042            1  0.000844969  3.37138e-06 
         700      39.0751            1  0.000844918  3.48653e-06 
         700      39.3469      1.00001  0.000844913  3.59773e-06 
         700      39.6197      1.00001  0.000844931  3.70888e-06 
         700      39.8934      1.00001  0.000844954  3.82202e-06 
         700       40.168      1.00001  0.000844967  3.93749e-06 
         700      40.4436      1.00001  0.000844963  4.05349e-06 
         700      40.7202      1.00001  0.000844961  4.16464e-06 
         700      40.9977      1.00001  0.000844972  4.27903e-06 
         700      41.2761      1.00001  0.000844978  4.39656e-06 
         700      41.5554      1.00001  0.000844972  4.51454e-06 
         700      41.8358      1.00001  0.000844956  4.63162e-06 
         700       42.117      1.00001  0.000844935  4.74736e-06 
         700      42.3992      1.00001  0.000844916  4.86233e-06 
         700      42.6823      1.00001  0.000844907   4.9777e-06 
         700      42.9664      1.00001  0.000844914  5.09522e-06 
         700      43.2514      1.00001  0.000844941  5.21682e-06 
         700      43.5373      1.00001  0.000844939   5.3258e-06 
         700      43.8243      1.00001  0.000844933  5.43086e-06 
         700      44.1121      1.00001   0.00084494  5.54053e-06 
         700      44.4009      1.00002  0.000844954   5.6545e-06 
         700      44.6906      1.00002  0.000844967  5.77214e-06 
         700      44.9813      1.00002  0.000844974  5.89271e-06 
         700      45.2729      1.00002  0.000844973  6.01529e-06 
         700      45.5654      1.00002  0.000844963  6.13915e-06 
         700      45.8589      1.00002  0.000844944  6.26362e-06 
         700      46.1534      1.00002  0.000844921   6.3882e-06 
         700      46.4488      1.00002  0.000844897  6.51242e-06 
         700      46.7451      1.00002  0.000844879  6.63609e-06 
         700      47.0423      1.00002  0.000844871  6.75912e-06 
         700      47.3406      1.00002  0.000844875   6.8816e-06 
         700      47.6397      1.00002  0.000844892  7.00355e-06 
         700      47.9398      1.00002  0.000844918  7.12521e-06 
         700      48.2409      1.00002  0.000844947  7.24688e-06 
         700      48.5428      1.00002  0.000844968   7.3687e-06 
         700      48.8457      1.00002  0.000844971  7.49102e-06 
         700      49.1496      1.00003  0.000844949  7.61416e-06 
         700      49.4545      1.00003  0.000844904  7.73858e-06 
         700      49.7602      1.00003  0.000844858  7.86478e-06 
         700      50.0668      1.00003  0.000844865   7.9937e-06 
         700      50.3744      1.00003  0.000845028  8.12667e-06 
         700      50.6831      1.00003  0.000844893  8.24846e-06 
         700      50.9926      1.00003  0.000844839  8.37428e-06 
         700       51.303      1.00003  0.000844855  8.50286e-06 
         700      51.6144      1.00003  0.000844894   8.6319e-06 
         700      51.9268      1.00003  0.000844931     8.76e-06 
         700        52.24      1.00003   0.00084495  8.88632e-06 
         700      52.5542      1.00003  0.000844949  9.01077e-06 
         700      52.8694      1.00003   0.00084493   9.1337e-06 
         700      53.1856      1.00003    0.0008449  9.25578e-06 
         700      53.5026      1.00003  0.000844865  9.37778e-06 
         700      53.8205      1.00003  0.000844834  9.50068e-06 
         700      54.1396      1.00004  0.000844811  9.62543e-06 
         700      54.4594      1.00004    0.0008448  9.75269e-06 
         700      54.7802      1.00004  0.000844803  9.88305e-06 
         700      55.1019      1.00004  0.000844818  1.00168e-05 
         700      55.4247      1.00004  0.000844842  1.01538e-05 
         700      55.7483      1.00004   0.00084487  1.02935e-05 
         700      56.0729      1.00004  0.000844897  1.04353e-05 
         700      56.3984      1.00004  0.000844917  1.05779e-05 
         700       56.725      1.00004  0.000844927    1.072e-05 
         700      57.0523      1.00004  0.000844924  1.08601e-05 
         700      57.3807      1.00004  0.000844908  1.09967e-05 
         700      57.7099      1.00004  0.000844881  1.11286e-05 
         700      58.0403      1.00004  0.000844847  1.12553e-05 
         700      58.3714      1.00004  0.000844813  1.13768e-05 
         700      58.7035      1.00005  0.000844785  1.14947e-05 
         700      59.0367      1.00005  0.000844766  1.16124e-05 
         700      59.3707      1.00005  0.000844756  1.17353e-05 
         700      59.7056      1.00005  0.000844779  1.18886e-05 
         700      60.0414      1.00005  0.000844838  1.20401e-05 
         700      60.3784      1.00005   0.00084492  1.21859e-05 
         700      60.7161      1.00005  0.000844968  1.23213e-05 
         700      61.0548      1.00005  0.000844833  1.24406e-05 
         700      61.3944      1.00005  0.000844385  1.25367e-05 
         700      61.7351      1.00005  0.000844779   1.2641e-05 
         700      62.0767      1.00005  0.000844947  1.27792e-05 
         700      62.4191      1.00005   0.00084499  1.29424e-05 
         700      62.7625      1.00005  0.000844978  1.31239e-05 
         700       63.107      1.00006  0.000844849   1.3271e-05 
         700      63.4523      1.00006  0.000844736  1.34198e-05 
         700      63.7985      1.00006  0.000844661  1.35703e-05 
         700      64.1458      1.00006  0.000844627    1.372e-05 
         700      64.4939      1.00006  0.000844627  1.38675e-05 
         700       64.843      1.00006  0.000844651  1.40122e-05 
         700      65.1929      1.00006  0.000844689  1.41543e-05 
         700       65.544      1.00006   0.00084473  1.42942e-05 
         700      65.8959      1.00006  0.000844765  1.44328e-05 
         700      66.2487      1.00006  0.000844789  1.45707e-05 
         700      66.6025      1.00006  0.000844799   1.4709e-05 
         700      66.9573      1.00006  0.000844795  1.48485e-05 
         700       67.313      1.00006  0.000844779  1.49896e-05 
         700      67.6695      1.00006  0.000844754  1.51329e-05 
         700      68.0271      1.00007  0.000844725  1.52784e-05 
         700      68.3857      1.00007  0.000844695  1.54263e-05 
         700      68.7451      1.00007  0.000844669  1.55762e-05 
         700      69.1055      1.00007   0.00084465  1.57279e-05 
         700      69.4669      1.00007  0.000844638   1.5881e-05 
         700      69.8291      1.00007  0.000844634  1.60348e-05 
         700      70.1923      1.00007  0.000844636  1.61889e-05 
         700      70.5564      1.00007  0.000844641  1.63428e-05 
         700      70.9217      1.00007  0.000844645  1.64963e-05 
         700      71.2877      1.00007  0.000844647   1.6649e-05 
         700      71.6546      1.00007  0.000844642  1.68009e-05 
         700      72.0225      1.00007   0.00084463  1.69523e-05 
         700      72.3915      1.00007  0.000844612  1.71034e-05 
         700      72.7613      1.00008  0.000844591  1.72545e-05 
         700       73.132      1.00007  0.000844572   1.7406e-05 
         700      73.5036      1.00007  0.000844561  1.75584e-05 
         700      73.8764      1.00007  0.000844564  1.77115e-05 
         700      74.2499      1.00006  0.000844582  1.78646e-05 
         700      74.6244      1.00003  0.000844607  1.80165e-05 
         700           75            1  0.000844615  1.81643e-05 
