Variables = x, y, u, v, p

Zone, I=400, F=POINT
           0            0           -0           -0  -7.5586e-05 
           0     0.000471  0.000269052  9.40592e-11 -7.55856e-05 
           0     0.001884   0.00107621  1.50495e-09 -7.55844e-05 
           0     0.004239   0.00242147  7.61879e-09 -7.55824e-05 
           0     0.007537   0.00430541  2.40855e-08 -7.55796e-05 
           0     0.011776   0.00672689  5.87968e-08  -7.5576e-05 
           0     0.016958   0.00968705  1.21929e-07 -7.55716e-05 
           0     0.023081    0.0131848  2.25874e-07 -7.55664e-05 
           0      0.03015    0.0172229  3.85417e-07 -7.55604e-05 
           0     0.038157    0.0217968   6.1731e-07 -7.55536e-05 
           0     0.047107    0.0269094  9.40857e-07 -7.55461e-05 
           0     0.056999    0.0325601  1.37748e-06 -7.55377e-05 
           0     0.067837    0.0387511   1.9511e-06 -7.55285e-05 
           0     0.079614    0.0454784  2.68732e-06 -7.55185e-05 
           0     0.092332    0.0527431   3.6144e-06 -7.55077e-05 
           0     0.105992    0.0605455  4.76286e-06 -7.54961e-05 
           0       0.1206    0.0688888  6.16596e-06 -7.54837e-05 
           0     0.136145    0.0777666  7.85759e-06 -7.54705e-05 
           0     0.152631    0.0871806  9.87517e-06 -7.54565e-05 
           0     0.170067    0.0971356  1.22593e-05 -7.54417e-05 
           0     0.188438     0.107622  1.50493e-05 -7.54261e-05 
           0     0.207751     0.118643  1.82897e-05 -7.54097e-05 
           0     0.228006     0.130198  2.20262e-05 -7.53925e-05 
           0     0.249212      0.14229  2.63084e-05 -7.53744e-05 
           0     0.271351     0.154906  3.11822e-05 -7.53556e-05 
           0     0.294433     0.168051   3.6701e-05 -7.53359e-05 
           0     0.318456     0.181721  4.29175e-05 -7.53153e-05 
           0     0.343432     0.195917  4.98899e-05 -7.52939e-05 
           0     0.369339     0.210624  5.76682e-05 -7.52717e-05 
           0     0.396189     0.225844  6.63129e-05 -7.52486e-05 
           0     0.423981     0.241569   7.5882e-05 -7.52245e-05 
           0     0.452726     0.257798  8.64385e-05 -7.51996e-05 
           0     0.482403     0.274511  9.80338e-05 -7.51737e-05 
           0     0.513021     0.291704   0.00011073 -7.51468e-05 
           0     0.544594     0.309371  0.000124592 -7.51189e-05 
           0     0.577096     0.327486  0.000139665   -7.509e-05 
           0     0.610541      0.34604   0.00015601 -7.50599e-05 
           0     0.644927     0.365014   0.00017368 -7.50288e-05 
           0      0.68027     0.384398  0.000192733 -7.49964e-05 
           0     0.716541     0.404153  0.000213199 -7.49627e-05 
           0     0.753754      0.42426  0.000235125 -7.49277e-05 
           0     0.791909     0.444692  0.000258545 -7.48912e-05 
           0     0.831022     0.465424  0.000283497 -7.48532e-05 
           0     0.871061     0.486405  0.000309978 -7.48136e-05 
           0     0.912043     0.507605  0.000338008 -7.47723e-05 
           0     0.953966     0.528981  0.000367583  -7.4729e-05 
           0     0.996849     0.550497  0.000398703 -7.46838e-05 
           0      1.04066     0.572084  0.000431312 -7.46365e-05 
           0      1.08541       0.5937  0.000465382 -7.45869e-05 
           0      1.13112     0.615296  0.000500867 -7.45349e-05 
           0      1.17775     0.636795  0.000537664 -7.44803e-05 
           0      1.22533     0.658144  0.000575691  -7.4423e-05 
           0      1.27384     0.679276  0.000614837 -7.43628e-05 
           0      1.32333     0.700134  0.000654988 -7.42994e-05 
           0      1.37373     0.720632  0.000695962 -7.42329e-05 
           0      1.42507      0.74071  0.000737608 -7.41629e-05 
           0      1.47736     0.760299  0.000779744 -7.40893e-05 
           0      1.53061     0.779339  0.000822187  -7.4012e-05 
           0      1.58478     0.797749   0.00086469 -7.39309e-05 
           0      1.63989     0.815475  0.000907048 -7.38458e-05 
           0      1.69595     0.832459  0.000949031 -7.37566e-05 
           0      1.75297     0.848654  0.000990419 -7.36632e-05 
           0      1.81091     0.864001   0.00103095 -7.35656e-05 
           0      1.86979     0.878469   0.00107041 -7.34637e-05 
           0      1.92964     0.892031   0.00110859 -7.33575e-05 
           0       1.9904     0.904654   0.00114525  -7.3247e-05 
           0      2.05211     0.916333   0.00118023 -7.31322e-05 
           0      2.11476     0.927063   0.00121336 -7.30132e-05 
           0      2.17838     0.936856   0.00124452   -7.289e-05 
           0      2.24291     0.945721   0.00127356 -7.27628e-05 
           0      2.30839     0.953686   0.00130042 -7.26316e-05 
           0       2.3748     0.960786   0.00132506 -7.24966e-05 
           0      2.44219     0.967065   0.00134747 -7.23579e-05 
           0      2.51049     0.972565   0.00136766 -7.22156e-05 
           0      2.57974     0.977343   0.00138569   -7.207e-05 
           0      2.64993     0.981454   0.00140163 -7.19212e-05 
           0      2.72108     0.984959   0.00141558 -7.17692e-05 
           0      2.79315     0.987917   0.00142768 -7.16144e-05 
           0      2.86617     0.990387   0.00143805 -7.14564e-05 
           0      2.94012     0.992429   0.00144685 -7.12956e-05 
           0      3.01505       0.9941   0.00145423 -7.11322e-05 
           0      3.09089     0.995451   0.00146035 -7.09665e-05 
           0      3.16767      0.99653   0.00146538 -7.07986e-05 
           0      3.24542     0.997384   0.00146945 -7.06284e-05 
           0      3.32409     0.998049   0.00147271 -7.04558e-05 
           0       3.4037     0.998563   0.00147528 -7.02808e-05 
           0      3.48425     0.998953   0.00147729 -7.01032e-05 
           0      3.56577     0.999247   0.00147885 -6.99235e-05 
           0       3.6482     0.999464   0.00148003  -6.9742e-05 
           0      3.73158     0.999623   0.00148092 -6.95584e-05 
           0       3.8159     0.999738   0.00148158 -6.93726e-05 
           0      3.90119     0.999819   0.00148207 -6.91843e-05 
           0       3.9874     0.999876   0.00148242  -6.8994e-05 
           0      4.07454     0.999916   0.00148268 -6.88018e-05 
           0      4.16263     0.999942   0.00148286 -6.86071e-05 
           0      4.25169      0.99996   0.00148299 -6.84103e-05 
           0      4.34166     0.999972   0.00148309 -6.82116e-05 
           0      4.43258     0.999979   0.00148316 -6.80108e-05 
           0      4.52447     0.999984   0.00148322 -6.78079e-05 
           0      4.61726     0.999987   0.00148326  -6.7603e-05 
           0        4.711     0.999989   0.00148329 -6.73961e-05 
           0      4.80569      0.99999   0.00148333 -6.71869e-05 
           0      4.90135     0.999991   0.00148335 -6.69753e-05 
           0      4.99791     0.999991   0.00148338 -6.67625e-05 
           0      5.09542     0.999992   0.00148341 -6.65482e-05 
           0      5.19387     0.999992   0.00148343 -6.63313e-05 
           0       5.2933     0.999992   0.00148346  -6.6112e-05 
           0      5.39364     0.999992   0.00148348 -6.58904e-05 
           0      5.49491     0.999992   0.00148351 -6.56667e-05 
           0      5.59713     0.999992   0.00148353 -6.54409e-05 
           0      5.70033     0.999992   0.00148356 -6.52125e-05 
           0      5.80443     0.999992   0.00148358 -6.49824e-05 
           0      5.90948     0.999992   0.00148361 -6.47505e-05 
           0      6.01551     0.999992   0.00148363 -6.45174e-05 
           0      6.12244     0.999992   0.00148366 -6.42799e-05 
           0      6.23031     0.999992   0.00148368 -6.40406e-05 
           0      6.33912     0.999992    0.0014837 -6.38005e-05 
           0      6.44892     0.999992   0.00148373 -6.35588e-05 
           0      6.55962     0.999992   0.00148375 -6.33153e-05 
           0      6.67126     0.999992   0.00148378 -6.30695e-05 
           0      6.78384     0.999992    0.0014838 -6.28213e-05 
           0      6.89741     0.999993   0.00148383 -6.25707e-05 
           0      7.01187     0.999993   0.00148386  -6.2318e-05 
           0      7.12728     0.999993   0.00148388 -6.20632e-05 
           0      7.24363     0.999993   0.00148391 -6.18063e-05 
           0      7.36097     0.999993   0.00148394 -6.15474e-05 
           0       7.4792     0.999993   0.00148396 -6.12864e-05 
           0      7.59838     0.999993   0.00148399 -6.10235e-05 
           0      7.71854     0.999993   0.00148402 -6.07587e-05 
           0       7.8396     0.999993   0.00148404 -6.04919e-05 
           0      7.96161     0.999993   0.00148407 -6.02229e-05 
           0      8.08455     0.999993   0.00148409 -5.99517e-05 
           0      8.20849     0.999993   0.00148412 -5.96783e-05 
           0      8.33332     0.999993   0.00148415 -5.94029e-05 
           0      8.45909     0.999993   0.00148417 -5.91257e-05 
           0       8.5858     0.999993    0.0014842 -5.88467e-05 
           0      8.71351     0.999993   0.00148423 -5.85657e-05 
           0       8.8421     0.999993   0.00148426 -5.82823e-05 
           0      8.97164     0.999993   0.00148429 -5.79954e-05 
           0      9.10212     0.999993   0.00148431 -5.77042e-05 
           0       9.2336     0.999993   0.00148433 -5.74126e-05 
           0      9.36596     0.999993   0.00148436 -5.71189e-05 
           0      9.49927     0.999993   0.00148439 -5.68228e-05 
           0      9.63352     0.999993   0.00148441 -5.65239e-05 
           0      9.76877     0.999993   0.00148444 -5.62245e-05 
           0       9.9049     0.999993   0.00148446 -5.59266e-05 
           0       10.042     0.999993   0.00148449 -5.56274e-05 
           0      10.1801     0.999994   0.00148451 -5.53245e-05 
           0       10.319     0.999994   0.00148454 -5.50191e-05 
           0      10.4589     0.999994   0.00148457 -5.47123e-05 
           0      10.5998     0.999994    0.0014846 -5.44016e-05 
           0      10.7416     0.999994   0.00148462 -5.40883e-05 
           0      10.8843     0.999994   0.00148465 -5.37735e-05 
           0       11.028     0.999994   0.00148467 -5.34574e-05 
           0      11.1726     0.999994    0.0014847 -5.31401e-05 
           0      11.3182     0.999994   0.00148473 -5.28212e-05 
           0      11.4647     0.999994   0.00148475 -5.25007e-05 
           0      11.6122     0.999994   0.00148478  -5.2178e-05 
           0      11.7605     0.999994   0.00148481 -5.18528e-05 
           0      11.9099     0.999994   0.00148484 -5.15248e-05 
           0      12.0602     0.999994   0.00148487 -5.11944e-05 
           0      12.2114     0.999994   0.00148489 -5.08614e-05 
           0      12.3636     0.999994   0.00148492 -5.05258e-05 
           0      12.5167     0.999994   0.00148495 -5.01891e-05 
           0      12.6707     0.999994   0.00148498 -4.98499e-05 
           0      12.8257     0.999994   0.00148501 -4.95078e-05 
           0      12.9817     0.999994   0.00148503 -4.91632e-05 
           0      13.1386     0.999994   0.00148506 -4.88174e-05 
           0      13.2964     0.999995   0.00148509 -4.84709e-05 
           0      13.4551     0.999995   0.00148512 -4.81238e-05 
           0      13.6149     0.999995   0.00148515 -4.77753e-05 
           0      13.7755     0.999995   0.00148518 -4.74243e-05 
           0      13.9371     0.999995    0.0014852 -4.70693e-05 
           0      14.0996     0.999995   0.00148523 -4.67096e-05 
           0      14.2631     0.999995   0.00148526 -4.63462e-05 
           0      14.4275     0.999995   0.00148529 -4.59841e-05 
           0      14.5928     0.999995   0.00148531 -4.56338e-05 
           0      14.7592     0.999995   0.00148533 -4.52779e-05 
           0      14.9264     0.999995   0.00148535 -4.49137e-05 
           0      15.0946     0.999995   0.00148537 -4.45451e-05 
           0      15.2637     0.999995    0.0014854 -4.41712e-05 
           0      15.4338     0.999995   0.00148543 -4.37941e-05 
           0      15.6048     0.999995   0.00148547 -4.34194e-05 
           0      15.7767     0.999995   0.00148548 -4.30423e-05 
           0      15.9496     0.999995   0.00148549  -4.2663e-05 
           0      16.1235     0.999995   0.00148551 -4.22795e-05 
           0      16.2982     0.999995   0.00148554 -4.18912e-05 
           0      16.4739     0.999995   0.00148554 -4.14856e-05 
           0      16.6506     0.999995   0.00148556 -4.10886e-05 
           0      16.8282     0.999995   0.00148558 -4.06977e-05 
           0      17.0068     0.999995   0.00148561 -4.03089e-05 
           0      17.1862     0.999995   0.00148564  -3.9919e-05 
           0      17.3667     0.999996   0.00148567  -3.9526e-05 
           0      17.5481     0.999996    0.0014857 -3.91291e-05 
           0      17.7304     0.999996   0.00148573 -3.87279e-05 
           0      17.9136     0.999996   0.00148575 -3.83228e-05 
           0      18.0979     0.999996   0.00148578 -3.79145e-05 
           0       18.283     0.999996    0.0014858 -3.75043e-05 
           0      18.4691     0.999996   0.00148582 -3.70928e-05 
           0      18.6561     0.999996   0.00148584 -3.66809e-05 
           0      18.8441     0.999996   0.00148586 -3.62687e-05 
           0       19.033     0.999996   0.00148589 -3.58566e-05 
           0      19.2228     0.999996   0.00148591 -3.54438e-05 
           0      19.4136     0.999996   0.00148594 -3.50295e-05 
           0      19.6054     0.999996   0.00148597 -3.46127e-05 
           0       19.798     0.999996   0.00148599 -3.41932e-05 
           0      19.9917     0.999996   0.00148602 -3.37714e-05 
           0      20.1862     0.999996   0.00148605 -3.33454e-05 
           0      20.3818     0.999996   0.00148605 -3.29136e-05 
           0      20.5782     0.999996   0.00148607 -3.24798e-05 
           0      20.7756     0.999996   0.00148608  -3.2044e-05 
           0       20.974     0.999996   0.00148611  -3.1606e-05 
           0      21.1732     0.999997   0.00148613 -3.11666e-05 
           0      21.3734     0.999997   0.00148615 -3.07254e-05 
           0      21.5745     0.999997   0.00148617 -3.02826e-05 
           0      21.7767     0.999997   0.00148619 -2.98377e-05 
           0      21.9797     0.999997   0.00148622 -2.93908e-05 
           0      22.1837     0.999997   0.00148625 -2.89416e-05 
           0      22.3886     0.999997   0.00148627 -2.84901e-05 
           0      22.5945     0.999997    0.0014863 -2.80362e-05 
           0      22.8013     0.999997   0.00148632 -2.75806e-05 
           0      23.0091     0.999997   0.00148633 -2.71239e-05 
           0      23.2177     0.999997   0.00148634 -2.66663e-05 
           0      23.4274     0.999997   0.00148634 -2.62082e-05 
           0       23.638     0.999997   0.00148637 -2.57491e-05 
           0      23.8495     0.999997    0.0014864 -2.52916e-05 
           0       24.062     0.999997   0.00148641 -2.48346e-05 
           0      24.2754     0.999998   0.00148644 -2.43669e-05 
           0      24.4897     0.999998   0.00148647 -2.38922e-05 
           0       24.705     0.999998   0.00148649 -2.34187e-05 
           0      24.9213     0.999998    0.0014865 -2.29515e-05 
           0      25.1385     0.999998   0.00148654 -2.24692e-05 
           0      25.3566     0.999998   0.00148655 -2.19857e-05 
           0      25.5756     0.999998   0.00148655 -2.15019e-05 
           0      25.7957     0.999998   0.00148655  -2.1018e-05 
           0      26.0166     0.999998   0.00148656 -2.05342e-05 
           0      26.2385     0.999998   0.00148658 -2.00501e-05 
           0      26.4613     0.999998    0.0014866 -1.95664e-05 
           0      26.6851     0.999998   0.00148662 -1.90817e-05 
           0      26.9098     0.999998   0.00148664 -1.85916e-05 
           0      27.1354     0.999998   0.00148666 -1.80973e-05 
           0      27.3621     0.999998   0.00148666 -1.75996e-05 
           0      27.5896     0.999998   0.00148666 -1.70995e-05 
           0      27.8181     0.999998   0.00148666 -1.65972e-05 
           0      28.0475     0.999998   0.00148667 -1.60929e-05 
           0      28.2779     0.999998   0.00148668 -1.55867e-05 
           0      28.5092     0.999999    0.0014867 -1.50791e-05 
           0      28.7414     0.999999   0.00148672 -1.45703e-05 
           0      28.9746     0.999999   0.00148674 -1.40603e-05 
           0      29.2088     0.999999   0.00148675 -1.35486e-05 
           0      29.4439     0.999999   0.00148673 -1.30343e-05 
           0      29.6799     0.999999   0.00148673 -1.25145e-05 
           0      29.9168     0.999999   0.00148679 -1.19851e-05 
           0      30.1548     0.999999   0.00148673 -1.14684e-05 
           0      30.3936     0.999999   0.00148677 -1.09405e-05 
           0      30.6334     0.999999   0.00148682 -1.04089e-05 
           0      30.8742     0.999999   0.00148685 -9.87596e-06 
           0      31.1158     0.999999   0.00148684 -9.34256e-06 
           0      31.3584     0.999999   0.00148682 -8.80875e-06 
           0       31.602     0.999999    0.0014868 -8.27583e-06 
           0      31.8465     0.999999    0.0014868 -7.74601e-06 
           0      32.0919     0.999999   0.00148687 -7.22235e-06 
           0      32.3383            1   0.00148686 -6.68913e-06 
           0      32.5856            1   0.00148684 -6.14983e-06 
           0       32.834            1   0.00148685 -5.60943e-06 
           0      33.0831            1   0.00148686 -5.06647e-06 
           0      33.3333            1   0.00148686 -4.51943e-06 
           0      33.5843            1   0.00148686 -3.96732e-06 
           0      33.8364            1   0.00148687 -3.40948e-06 
           0      34.0894            1   0.00148687 -2.84744e-06 
           0      34.3433            1   0.00148687  -2.2856e-06 
           0      34.5981            1   0.00148688 -1.73541e-06 
           0       34.854            1   0.00148689 -1.17277e-06 
           0      35.1107            1   0.00148688  -6.1322e-07 
           0      35.3684            1   0.00148687 -5.68437e-08 
           0      35.6271            1   0.00148686  5.04886e-07 
           0      35.8867            1   0.00148685  1.07427e-06 
           0      36.1472            1   0.00148685  1.65041e-06 
           0      36.4086            1   0.00148685  2.23016e-06 
           0      36.6711            1   0.00148685  2.81031e-06 
           0      36.9344            1   0.00148685  3.38819e-06 
           0      37.1987            1   0.00148685  3.96397e-06 
           0      37.4639            1   0.00148684  4.53995e-06 
           0      37.7301            1   0.00148683  5.12009e-06 
           0      37.9972            1   0.00148682  5.70679e-06 
           0      38.2652            1   0.00148683   6.2983e-06 
           0      38.5342            1   0.00148684  6.88167e-06 
           0      38.8042            1   0.00148683  7.47671e-06 
           0      39.0751            1    0.0014868  8.08027e-06 
           0      39.3469            1   0.00148678  8.67327e-06 
           0      39.6197            1   0.00148678  9.26248e-06 
           0      39.8934            1   0.00148679   9.8527e-06 
           0       40.168            1   0.00148678  1.04482e-05 
           0      40.4436            1   0.00148676  1.10513e-05 
           0      40.7202            1   0.00148673  1.16623e-05 
           0      40.9977            1   0.00148681   1.2277e-05 
           0      41.2761            1   0.00148672  1.28923e-05 
           0      41.5554            1   0.00148667  1.35031e-05 
           0      41.8358            1   0.00148664  1.41132e-05 
           0       42.117            1   0.00148662  1.47244e-05 
           0      42.3992            1   0.00148661  1.53381e-05 
           0      42.6823            1    0.0014866  1.59551e-05 
           0      42.9664            1   0.00148659  1.65758e-05 
           0      43.2514            1   0.00148657     1.72e-05 
           0      43.5373            1   0.00148656  1.78278e-05 
           0      43.8243            1   0.00148655  1.84595e-05 
           0      44.1121            1   0.00148654  1.90943e-05 
           0      44.4009            1   0.00148652  1.97325e-05 
           0      44.6906            1   0.00148651  2.03738e-05 
           0      44.9813            1    0.0014865   2.1018e-05 
           0      45.2729            1   0.00148648  2.16639e-05 
           0      45.5654            1   0.00148646  2.23106e-05 
           0      45.8589            1   0.00148643  2.29564e-05 
           0      46.1534            1    0.0014864  2.35995e-05 
           0      46.4488            1   0.00148636  2.42364e-05 
           0      46.7451            1   0.00148631  2.48639e-05 
           0      47.0423            1   0.00148628  2.55067e-05 
           0      47.3406            1   0.00148627  2.61896e-05 
           0      47.6397            1   0.00148625  2.68618e-05 
           0      47.9398            1   0.00148621  2.75269e-05 
           0      48.2409            1   0.00148618   2.8188e-05 
           0      48.5428            1   0.00148616  2.88472e-05 
           0      48.8457            1   0.00148614  2.95068e-05 
           0      49.1496            1   0.00148613  3.01678e-05 
           0      49.4545            1   0.00148612  3.08309e-05 
           0      49.7602            1    0.0014861  3.14953e-05 
           0      50.0668            1   0.00148606  3.21599e-05 
           0      50.3744            1   0.00148599  3.28226e-05 
           0      50.6831            1   0.00148588   3.3481e-05 
           0      50.9926            1   0.00148591  3.41568e-05 
           0       51.303            1   0.00148592  3.48329e-05 
           0      51.6144            1   0.00148588  3.55102e-05 
           0      51.9268            1   0.00148581   3.6194e-05 
           0        52.24            1   0.00148572  3.68868e-05 
           0      52.5542            1   0.00148565  3.75904e-05 
           0      52.8694            1   0.00148561  3.83037e-05 
           0      53.1856            1   0.00148566  3.90224e-05 
           0      53.5026            1   0.00148557  3.96977e-05 
           0      53.8205      1.00001    0.0014855  4.03842e-05 
           0      54.1396      1.00001   0.00148545   4.1078e-05 
           0      54.4594      1.00001   0.00148541   4.1776e-05 
           0      54.7802      1.00001   0.00148536  4.24767e-05 
           0      55.1019      1.00001   0.00148531  4.31791e-05 
           0      55.4247      1.00001   0.00148526  4.38835e-05 
           0      55.7483      1.00001   0.00148521  4.45895e-05 
           0      56.0729      1.00001   0.00148516  4.52977e-05 
           0      56.3984      1.00001   0.00148511  4.60088e-05 
           0       56.725      1.00001   0.00148505  4.67236e-05 
           0      57.0523      1.00001   0.00148499  4.74418e-05 
           0      57.3807      1.00001   0.00148493   4.8164e-05 
           0      57.7099      1.00001   0.00148487  4.88902e-05 
           0      58.0403      1.00001   0.00148481  4.96204e-05 
           0      58.3714      1.00001   0.00148475  5.03535e-05 
           0      58.7035      1.00001   0.00148468   5.1089e-05 
           0      59.0367      1.00001   0.00148462  5.18265e-05 
           0      59.3707      1.00001   0.00148455  5.25643e-05 
           0      59.7056      1.00001   0.00148449  5.33021e-05 
           0      60.0414      1.00001   0.00148443  5.40391e-05 
           0      60.3784      1.00001   0.00148436  5.47755e-05 
           0      60.7161      1.00001    0.0014843  5.55108e-05 
           0      61.0548      1.00001   0.00148424  5.62466e-05 
           0      61.3944      1.00001   0.00148417   5.6985e-05 
           0      61.7351      1.00001    0.0014841  5.77295e-05 
           0      62.0767      1.00001   0.00148401  5.84845e-05 
           0      62.4191      1.00001   0.00148394  5.92171e-05 
           0      62.7625      1.00001   0.00148388  5.99559e-05 
           0       63.107      1.00001    0.0014838  6.07053e-05 
           0      63.4523      1.00001   0.00148371  6.14625e-05 
           0      63.7985      1.00001   0.00148362   6.2226e-05 
           0      64.1458      1.00001   0.00148353  6.29942e-05 
           0      64.4939      1.00001   0.00148344  6.37654e-05 
           0       64.843      1.00001   0.00148335  6.45385e-05 
           0      65.1929      1.00001   0.00148327   6.5313e-05 
           0       65.544      1.00001   0.00148319  6.60885e-05 
           0      65.8959      1.00001   0.00148312  6.68643e-05 
           0      66.2487      1.00001   0.00148305  6.76406e-05 
           0      66.6025      1.00001   0.00148298  6.84175e-05 
           0      66.9573      1.00001    0.0014829  6.91956e-05 
           0       67.313      1.00001   0.00148282  6.99745e-05 
           0      67.6695      1.00001   0.00148273  7.07549e-05 
           0      68.0271      1.00001   0.00148263  7.15369e-05 
           0      68.3857      1.00001   0.00148252  7.23212e-05 
           0      68.7451      1.00001    0.0014824   7.3107e-05 
           0      69.1055      1.00001   0.00148229  7.38948e-05 
           0      69.4669      1.00001   0.00148217  7.46848e-05 
           0      69.8291      1.00001   0.00148205  7.54762e-05 
           0      70.1923      1.00001   0.00148194  7.62693e-05 
           0      70.5564      1.00001   0.00148183  7.70644e-05 
           0      70.9217      1.00001   0.00148174  7.78625e-05 
           0      71.2877      1.00001   0.00148165  7.86642e-05 
           0      71.6546      1.00001   0.00148156  7.94721e-05 
           0      72.0225      1.00001   0.00148147  8.02898e-05 
           0      72.3915      1.00001   0.00148137  8.11232e-05 
           0      72.7613      1.00001   0.00148122  8.19032e-05 
           0       73.132      1.00001   0.00148109  8.26806e-05 
           0      73.5036      1.00001   0.00148098  8.34622e-05 
           0      73.8764      1.00001   0.00148086  8.42457e-05 
           0      74.2499      1.00001   0.00148075  8.50261e-05 
           0      74.6244      1.00001   0.00148064  8.57964e-05 
           0           75            1   0.00148056  8.65463e-05 
