Variables = x, y, u, v, p

Zone, I=400, F=POINT
         450            0            0            0 -1.91845e-05 
         450     0.000471  0.000176159  2.63224e-11 -1.91844e-05 
         450     0.001884  0.000704638  4.21158e-10  -1.9184e-05 
         450     0.004239   0.00158544  2.13211e-09 -1.91835e-05 
         450     0.007537   0.00281893  6.74032e-09 -1.91827e-05 
         450     0.011776   0.00440436  1.64543e-08 -1.91817e-05 
         450     0.016958   0.00634249  3.41219e-08 -1.91805e-05 
         450     0.023081   0.00863257  6.32112e-08  -1.9179e-05 
         450      0.03015    0.0112765   1.0786e-07 -1.91773e-05 
         450     0.038157    0.0142712  1.72757e-07 -1.91754e-05 
         450     0.047107    0.0176186  2.63304e-07 -1.91733e-05 
         450     0.056999    0.0213183  3.85497e-07  -1.9171e-05 
         450     0.067837    0.0253718  5.46034e-07 -1.91684e-05 
         450     0.079614    0.0297765  7.52082e-07 -1.91656e-05 
         450     0.092332    0.0345331  1.01156e-06 -1.91626e-05 
         450     0.105992     0.039642    1.333e-06 -1.91593e-05 
         450       0.1206    0.0451053  1.72574e-06 -1.91559e-05 
         450     0.136145    0.0509189  2.19928e-06 -1.91522e-05 
         450     0.152631    0.0570842  2.76412e-06 -1.91483e-05 
         450     0.170067    0.0636045  3.43166e-06 -1.91441e-05 
         450     0.188438    0.0704741  4.21299e-06 -1.91398e-05 
         450     0.207751    0.0776953  5.12066e-06 -1.91352e-05 
         450     0.228006     0.085268  6.16757e-06 -1.91304e-05 
         450     0.249212    0.0931952  7.36778e-06 -1.91253e-05 
         450     0.271351      0.10147  8.73439e-06 -1.91201e-05 
         450     0.294433     0.110095  1.02827e-05 -1.91146e-05 
         450     0.318456      0.11907  1.20279e-05 -1.91089e-05 
         450     0.343432     0.128399  1.39867e-05 -1.91029e-05 
         450     0.369339     0.138071  1.61741e-05 -1.90968e-05 
         450     0.396189     0.148092  1.86078e-05 -1.90903e-05 
         450     0.423981     0.158458  2.13054e-05 -1.90837e-05 
         450     0.452726     0.169174  2.42861e-05 -1.90768e-05 
         450     0.482403     0.180229  2.75661e-05 -1.90697e-05 
         450     0.513021     0.191626  3.11653e-05 -1.90624e-05 
         450     0.544594     0.203366   3.5105e-05 -1.90548e-05 
         450     0.577096     0.215438  3.94014e-05  -1.9047e-05 
         450     0.610541     0.227845  4.40763e-05 -1.90389e-05 
         450     0.644927     0.240581  4.91497e-05 -1.90306e-05 
         450      0.68027      0.25365  5.46446e-05  -1.9022e-05 
         450     0.716541     0.267035  6.05768e-05 -1.90132e-05 
         450     0.753754     0.280737   6.6969e-05 -1.90041e-05 
         450     0.791909     0.294751  7.38416e-05 -1.89947e-05 
         450     0.831022     0.309075  8.12178e-05  -1.8985e-05 
         450     0.871061     0.323691  8.91113e-05 -1.89751e-05 
         450     0.912043     0.338597  9.75447e-05 -1.89648e-05 
         450     0.953966     0.353783  0.000106536 -1.89542e-05 
         450     0.996849     0.369246  0.000116108 -1.89433e-05 
         450      1.04066     0.384962  0.000126268 -1.89321e-05 
         450      1.08541     0.400925  0.000137037 -1.89205e-05 
         450      1.13112     0.417129  0.000148434 -1.89085e-05 
         450      1.17775     0.433546  0.000160461 -1.88961e-05 
         450      1.22533     0.450166  0.000173134 -1.88834e-05 
         450      1.27384     0.466971  0.000186461 -1.88702e-05 
         450      1.32333     0.483949  0.000200453 -1.88565e-05 
         450      1.37373     0.501068  0.000215103 -1.88423e-05 
         450      1.42507      0.51831  0.000230416 -1.88277e-05 
         450      1.47736     0.535654   0.00024639 -1.88125e-05 
         450      1.53061      0.55308  0.000263023 -1.87968e-05 
         450      1.58478     0.570548  0.000280291 -1.87805e-05 
         450      1.63989     0.588037  0.000298187 -1.87635e-05 
         450      1.69595     0.605517  0.000316691 -1.87459e-05 
         450      1.75297     0.622965  0.000335786 -1.87275e-05 
         450      1.81091     0.640334  0.000355429 -1.87085e-05 
         450      1.86979     0.657596  0.000375592 -1.86887e-05 
         450      1.92964     0.674726  0.000396245  -1.8668e-05 
         450       1.9904     0.691673  0.000417326 -1.86466e-05 
         450      2.05211     0.708409  0.000438794 -1.86242e-05 
         450      2.11476     0.724896  0.000460595 -1.86009e-05 
         450      2.17838     0.741105  0.000482678 -1.85767e-05 
         450      2.24291     0.756986   0.00050496 -1.85514e-05 
         450      2.30839     0.772511  0.000527382 -1.85252e-05 
         450       2.3748     0.787644  0.000549872 -1.84978e-05 
         450      2.44219     0.802356  0.000572362 -1.84694e-05 
         450      2.51049     0.816604  0.000594755 -1.84399e-05 
         450      2.57974     0.830364  0.000616982 -1.84092e-05 
         450      2.64993     0.843608  0.000638961 -1.83774e-05 
         450      2.72108     0.856315  0.000660619 -1.83442e-05 
         450      2.79315     0.868452  0.000681858   -1.831e-05 
         450      2.86617     0.880006  0.000702609 -1.82747e-05 
         450      2.94012     0.890963  0.000722797  -1.8238e-05 
         450      3.01505     0.901313  0.000742358 -1.82002e-05 
         450      3.09089     0.911041  0.000761209 -1.81612e-05 
         450      3.16767     0.920149  0.000779298 -1.81212e-05 
         450      3.24542      0.92864  0.000796579 -1.80803e-05 
         450      3.32409     0.936512  0.000812992  -1.8038e-05 
         450       3.4037     0.943778  0.000828507 -1.79944e-05 
         450      3.48425     0.950452  0.000843094 -1.79496e-05 
         450      3.56577     0.956551   0.00085674 -1.79038e-05 
         450       3.6482     0.962091  0.000869425 -1.78568e-05 
         450      3.73158     0.967098  0.000881152 -1.78089e-05 
         450       3.8159     0.971598  0.000891931   -1.776e-05 
         450      3.90119     0.975619   0.00090178 -1.77101e-05 
         450       3.9874     0.979188  0.000910717 -1.76593e-05 
         450      4.07454     0.982339  0.000918778 -1.76077e-05 
         450      4.16263     0.985101  0.000926002 -1.75551e-05 
         450      4.25169     0.987509  0.000932433 -1.75016e-05 
         450      4.34166     0.989592  0.000938117 -1.74473e-05 
         450      4.43258     0.991383  0.000943105 -1.73923e-05 
         450      4.52447     0.992912  0.000947453 -1.73365e-05 
         450      4.61726     0.994208  0.000951213 -1.72799e-05 
         450        4.711     0.995297  0.000954442 -1.72223e-05 
         450      4.80569     0.996207  0.000957192  -1.7164e-05 
         450      4.90135     0.996962  0.000959519  -1.7105e-05 
         450      4.99791     0.997581  0.000961468 -1.70456e-05 
         450      5.09542     0.998087   0.00096309 -1.69858e-05 
         450      5.19387     0.998496  0.000964429 -1.69251e-05 
         450       5.2933     0.998824  0.000965524 -1.68639e-05 
         450      5.39364     0.999085  0.000966412 -1.68023e-05 
         450      5.49491      0.99929  0.000967126 -1.67401e-05 
         450      5.59713     0.999451  0.000967695 -1.66772e-05 
         450      5.70033     0.999576  0.000968145 -1.66138e-05 
         450      5.80443     0.999671  0.000968497 -1.65501e-05 
         450      5.90948     0.999744  0.000968771 -1.64853e-05 
         450      6.01551     0.999799  0.000968981 -1.64199e-05 
         450      6.12244     0.999839  0.000969142 -1.63541e-05 
         450      6.23031      0.99987  0.000969264 -1.62878e-05 
         450      6.33912     0.999892  0.000969355  -1.6221e-05 
         450      6.44892     0.999908  0.000969422 -1.61537e-05 
         450      6.55962     0.999919  0.000969472 -1.60858e-05 
         450      6.67126     0.999927  0.000969509 -1.60171e-05 
         450      6.78384     0.999933  0.000969537 -1.59476e-05 
         450      6.89741     0.999937  0.000969559 -1.58773e-05 
         450      7.01187      0.99994  0.000969575 -1.58063e-05 
         450      7.12728     0.999942  0.000969588 -1.57348e-05 
         450      7.24363     0.999944  0.000969597 -1.56629e-05 
         450      7.36097     0.999945  0.000969603 -1.55906e-05 
         450       7.4792     0.999945  0.000969609  -1.5518e-05 
         450      7.59838     0.999946  0.000969615 -1.54445e-05 
         450      7.71854     0.999946  0.000969623 -1.53692e-05 
         450       7.8396     0.999947  0.000969628 -1.52933e-05 
         450      7.96161     0.999947  0.000969637  -1.5218e-05 
         450      8.08455     0.999947   0.00096965 -1.51427e-05 
         450      8.20849     0.999948  0.000969647 -1.50678e-05 
         450      8.33332     0.999948  0.000969649 -1.49917e-05 
         450      8.45909     0.999948  0.000969652 -1.49145e-05 
         450       8.5858     0.999948  0.000969657 -1.48364e-05 
         450      8.71351     0.999949  0.000969662 -1.47577e-05 
         450       8.8421     0.999949  0.000969667 -1.46783e-05 
         450      8.97164     0.999949  0.000969672 -1.45983e-05 
         450      9.10212     0.999949  0.000969677 -1.45179e-05 
         450       9.2336      0.99995  0.000969682 -1.44369e-05 
         450      9.36596      0.99995  0.000969688 -1.43553e-05 
         450      9.49927      0.99995  0.000969693 -1.42732e-05 
         450      9.63352      0.99995  0.000969698 -1.41906e-05 
         450      9.76877     0.999951  0.000969702 -1.41073e-05 
         450       9.9049     0.999951  0.000969706 -1.40235e-05 
         450       10.042     0.999951  0.000969709 -1.39389e-05 
         450      10.1801     0.999951  0.000969712 -1.38537e-05 
         450       10.319     0.999952  0.000969716 -1.37678e-05 
         450      10.4589     0.999952  0.000969721 -1.36814e-05 
         450      10.5998     0.999952  0.000969727 -1.35944e-05 
         450      10.7416     0.999952  0.000969734  -1.3507e-05 
         450      10.8843     0.999953  0.000969738 -1.34193e-05 
         450       11.028     0.999953  0.000969742  -1.3331e-05 
         450      11.1726     0.999953  0.000969747 -1.32419e-05 
         450      11.3182     0.999954  0.000969753  -1.3152e-05 
         450      11.4647     0.999954  0.000969758 -1.30614e-05 
         450      11.6122     0.999954  0.000969763 -1.29701e-05 
         450      11.7605     0.999954  0.000969767 -1.28783e-05 
         450      11.9099     0.999955   0.00096977 -1.27858e-05 
         450      12.0602     0.999955  0.000969774 -1.26929e-05 
         450      12.2114     0.999955  0.000969779 -1.25994e-05 
         450      12.3636     0.999956  0.000969784 -1.25052e-05 
         450      12.5167     0.999956   0.00096979 -1.24106e-05 
         450      12.6707     0.999956  0.000969796 -1.23154e-05 
         450      12.8257     0.999956    0.0009698 -1.22197e-05 
         450      12.9817     0.999957  0.000969802  -1.2124e-05 
         450      13.1386     0.999957  0.000969804 -1.20281e-05 
         450      13.2964     0.999957  0.000969811 -1.19313e-05 
         450      13.4551     0.999958  0.000969816 -1.18335e-05 
         450      13.6149     0.999958   0.00096982 -1.17346e-05 
         450      13.7755     0.999958  0.000969824 -1.16356e-05 
         450      13.9371     0.999958  0.000969832 -1.15375e-05 
         450      14.0996     0.999959  0.000969838 -1.14374e-05 
         450      14.2631     0.999959  0.000969846 -1.13355e-05 
         450      14.4275     0.999959  0.000969852 -1.12334e-05 
         450      14.5928      0.99996  0.000969855 -1.11309e-05 
         450      14.7592      0.99996  0.000969856 -1.10277e-05 
         450      14.9264      0.99996  0.000969859 -1.09241e-05 
         450      15.0946     0.999961  0.000969863   -1.082e-05 
         450      15.2637     0.999961  0.000969867 -1.07154e-05 
         450      15.4338     0.999961  0.000969873 -1.06101e-05 
         450      15.6048     0.999962  0.000969878 -1.05043e-05 
         450      15.7767     0.999962  0.000969884 -1.03978e-05 
         450      15.9496     0.999962  0.000969889 -1.02908e-05 
         450      16.1235     0.999963  0.000969894 -1.01832e-05 
         450      16.2982     0.999963  0.000969899 -1.00753e-05 
         450      16.4739     0.999963  0.000969904 -9.96707e-06 
         450      16.6506     0.999964  0.000969908 -9.85855e-06 
         450      16.8282     0.999964  0.000969911 -9.74967e-06 
         450      17.0068     0.999964  0.000969914 -9.64039e-06 
         450      17.1862     0.999964  0.000969918 -9.53045e-06 
         450      17.3667     0.999965  0.000969922 -9.41958e-06 
         450      17.5481     0.999965  0.000969927 -9.30761e-06 
         450      17.7304     0.999966  0.000969931 -9.19437e-06 
         450      17.9136     0.999966   0.00096993 -9.08002e-06 
         450      18.0979     0.999966  0.000969941 -8.96127e-06 
         450       18.283     0.999967  0.000969952 -8.84581e-06 
         450      18.4691     0.999967   0.00096996 -8.73192e-06 
         450      18.6561     0.999967  0.000969963 -8.61843e-06 
         450      18.8441     0.999968   0.00096996 -8.50477e-06 
         450       19.033     0.999968  0.000969961 -8.38788e-06 
         450      19.2228     0.999968  0.000969962 -8.27154e-06 
         450      19.4136     0.999969  0.000969965 -8.15536e-06 
         450      19.6054     0.999969  0.000969976 -8.03448e-06 
         450       19.798     0.999969  0.000969985 -7.91257e-06 
         450      19.9917      0.99997  0.000969988  -7.7912e-06 
         450      20.1862      0.99997  0.000969986  -7.6707e-06 
         450      20.3818      0.99997  0.000969983 -7.55057e-06 
         450      20.5782     0.999971  0.000969982 -7.43015e-06 
         450      20.7756     0.999971  0.000969984 -7.30881e-06 
         450       20.974     0.999972  0.000969991 -7.18651e-06 
         450      21.1732     0.999972  0.000969999 -7.06445e-06 
         450      21.3734     0.999972  0.000970007 -6.94536e-06 
         450      21.5745     0.999973  0.000970012 -6.82585e-06 
         450      21.7767     0.999973  0.000970018 -6.70009e-06 
         450      21.9797     0.999973  0.000970021 -6.57401e-06 
         450      22.1837     0.999974   0.00097002 -6.44777e-06 
         450      22.3886     0.999974  0.000970015 -6.32108e-06 
         450      22.5945     0.999974  0.000970013 -6.19342e-06 
         450      22.8013     0.999975  0.000970016 -6.06456e-06 
         450      23.0091     0.999975  0.000970029 -5.93481e-06 
         450      23.2177     0.999976  0.000970044 -5.80576e-06 
         450      23.4274     0.999976  0.000970039 -5.68109e-06 
         450       23.638     0.999976  0.000970032 -5.55193e-06 
         450      23.8495     0.999977  0.000970057 -5.41593e-06 
         450       24.062     0.999977  0.000970058 -5.28775e-06 
         450      24.2754     0.999978  0.000970053 -5.16175e-06 
         450      24.4897     0.999978  0.000970053 -5.03351e-06 
         450       24.705     0.999978  0.000970055 -4.89903e-06 
         450      24.9213     0.999979  0.000970047 -4.75373e-06 
         450      25.1385     0.999979  0.000970062 -4.62184e-06 
         450      25.3566      0.99998  0.000970075 -4.48621e-06 
         450      25.5756      0.99998  0.000970084 -4.34791e-06 
         450      25.7957      0.99998   0.00097009 -4.20867e-06 
         450      26.0166     0.999981  0.000970092 -4.06971e-06 
         450      26.2385     0.999981  0.000970091 -3.93153e-06 
         450      26.4613     0.999982   0.00097009 -3.79419e-06 
         450      26.6851     0.999982  0.000970089 -3.65736e-06 
         450      26.9098     0.999982  0.000970089 -3.52068e-06 
         450      27.1354     0.999983  0.000970091 -3.38354e-06 
         450      27.3621     0.999983  0.000970096 -3.24537e-06 
         450      27.5896     0.999984  0.000970102  -3.1059e-06 
         450      27.8181     0.999984  0.000970109 -2.96492e-06 
         450      28.0475     0.999984  0.000970115  -2.8225e-06 
         450      28.2779     0.999985  0.000970117  -2.6789e-06 
         450      28.5092     0.999985  0.000970116 -2.53464e-06 
         450      28.7414     0.999986   0.00097011 -2.39006e-06 
         450      28.9746     0.999986  0.000970104 -2.24521e-06 
         450      29.2088     0.999987  0.000970101 -2.09939e-06 
         450      29.4439     0.999987  0.000970111 -1.95081e-06 
         450      29.6799     0.999987  0.000970117 -1.80556e-06 
         450      29.9168     0.999988  0.000970124 -1.66169e-06 
         450      30.1548     0.999988  0.000970136 -1.51493e-06 
         450      30.3936     0.999989  0.000970144 -1.36705e-06 
         450      30.6334     0.999989  0.000970146 -1.21884e-06 
         450      30.8742      0.99999  0.000970146 -1.07049e-06 
         450      31.1158      0.99999  0.000970144 -9.22065e-07 
         450      31.3584      0.99999  0.000970144 -7.73272e-07 
         450       31.602     0.999991  0.000970145 -6.23843e-07 
         450      31.8465     0.999991  0.000970148 -4.73497e-07 
         450      32.0919     0.999992   0.00097015 -3.22241e-07 
         450      32.3383     0.999992  0.000970152 -1.70018e-07 
         450      32.5856     0.999993  0.000970153 -1.69403e-08 
         450       32.834     0.999993  0.000970153  1.36863e-07 
         450      33.0831     0.999994  0.000970153   2.9105e-07 
         450      33.3333     0.999994  0.000970154  4.45489e-07 
         450      33.5843     0.999994  0.000970154  6.03733e-07 
         450      33.8364     0.999995  0.000970152  7.61242e-07 
         450      34.0894     0.999995   0.00097015  9.17074e-07 
         450      34.3433     0.999996  0.000970149  1.07232e-06 
         450      34.5981     0.999996   0.00097015  1.22798e-06 
         450       34.854     0.999997  0.000970153  1.38496e-06 
         450      35.1107     0.999997  0.000970156  1.54363e-06 
         450      35.3684     0.999998  0.000970161   1.7041e-06 
         450      35.6271     0.999998  0.000970165   1.8658e-06 
         450      35.8867     0.999999  0.000970169  2.02723e-06 
         450      36.1472     0.999999  0.000970163  2.18641e-06 
         450      36.4086            1  0.000970162  2.34703e-06 
         450      36.6711            1  0.000970162  2.50898e-06 
         450      36.9344            1  0.000970161  2.67155e-06 
         450      37.1987            1  0.000970158  2.83457e-06 
         450      37.4639            1  0.000970155  2.99802e-06 
         450      37.7301            1  0.000970154  3.16203e-06 
         450      37.9972            1  0.000970155   3.3266e-06 
         450      38.2652            1  0.000970159  3.49187e-06 
         450      38.5342            1  0.000970163  3.65787e-06 
         450      38.8042            1  0.000970167  3.82464e-06 
         450      39.0751            1  0.000970169  3.99194e-06 
         450      39.3469            1  0.000970168  4.15974e-06 
         450      39.6197      1.00001  0.000970165  4.32795e-06 
         450      39.8934      1.00001   0.00097016  4.49634e-06 
         450       40.168      1.00001  0.000970155  4.66496e-06 
         450      40.4436      1.00001  0.000970151  4.83384e-06 
         450      40.7202      1.00001   0.00097015  5.00322e-06 
         450      40.9977      1.00001  0.000970153  5.17326e-06 
         450      41.2761      1.00001  0.000970158  5.34436e-06 
         450      41.5554      1.00001  0.000970165   5.5169e-06 
         450      41.8358      1.00001  0.000970168  5.69125e-06 
         450       42.117      1.00001  0.000970164  5.86732e-06 
         450      42.3992      1.00001  0.000970151  6.04479e-06 
         450      42.6823      1.00001  0.000970134   6.2225e-06 
         450      42.9664      1.00001  0.000970132  6.39829e-06 
         450      43.2514      1.00001  0.000970188  6.56819e-06 
         450      43.5373      1.00001  0.000970191  6.76125e-06 
         450      43.8243      1.00001  0.000970145  6.94052e-06 
         450      44.1121      1.00001  0.000970144  7.11529e-06 
         450      44.4009      1.00001  0.000970151  7.28894e-06 
         450      44.6906      1.00001  0.000970151  7.46342e-06 
         450      44.9813      1.00002  0.000970144  7.63972e-06 
         450      45.2729      1.00002  0.000970132  7.81794e-06 
         450      45.5654      1.00002   0.00097012  7.99796e-06 
         450      45.8589      1.00002  0.000970113  8.17937e-06 
         450      46.1534      1.00002  0.000970112  8.36179e-06 
         450      46.4488      1.00002  0.000970116  8.54465e-06 
         450      46.7451      1.00002  0.000970123  8.72775e-06 
         450      47.0423      1.00002  0.000970129  8.91096e-06 
         450      47.3406      1.00002  0.000970132   9.0944e-06 
         450      47.6397      1.00002  0.000970128  9.27807e-06 
         450      47.9398      1.00002  0.000970119  9.46229e-06 
         450      48.2409      1.00002  0.000970105  9.64743e-06 
         450      48.5428      1.00002   0.00097009  9.83355e-06 
         450      48.8457      1.00002  0.000970078  1.00209e-05 
         450      49.1496      1.00002  0.000970073  1.02094e-05 
         450      49.4545      1.00002  0.000970076  1.03989e-05 
         450      49.7602      1.00002  0.000970087  1.05891e-05 
         450      50.0668      1.00002    0.0009701  1.07795e-05 
         450      50.3744      1.00003   0.00097011  1.09697e-05 
         450      50.6831      1.00003  0.000970108  1.11596e-05 
         450      50.9926      1.00003   0.00097009  1.13494e-05 
         450       51.303      1.00003  0.000970069  1.15404e-05 
         450      51.6144      1.00003  0.000970081  1.17352e-05 
         450      51.9268      1.00003  0.000970099  1.19301e-05 
         450        52.24      1.00003  0.000970054  1.21214e-05 
         450      52.5542      1.00003  0.000970052  1.23176e-05 
         450      52.8694      1.00003   0.00097006  1.25151e-05 
         450      53.1856      1.00003  0.000970061  1.27119e-05 
         450      53.5026      1.00003  0.000970053  1.29072e-05 
         450      53.8205      1.00003  0.000970039   1.3101e-05 
         450      54.1396      1.00003  0.000970023  1.32942e-05 
         450      54.4594      1.00003  0.000970008  1.34873e-05 
         450      54.7802      1.00003  0.000969998  1.36812e-05 
         450      55.1019      1.00003  0.000969992  1.38765e-05 
         450      55.4247      1.00003  0.000969989  1.40738e-05 
         450      55.7483      1.00004  0.000969987  1.42732e-05 
         450      56.0729      1.00004  0.000969983  1.44745e-05 
         450      56.3984      1.00004  0.000969977  1.46774e-05 
         450       56.725      1.00004  0.000969967  1.48816e-05 
         450      57.0523      1.00004  0.000969955  1.50864e-05 
         450      57.3807      1.00004  0.000969943  1.52913e-05 
         450      57.7099      1.00004  0.000969932  1.54961e-05 
         450      58.0403      1.00004  0.000969927  1.57004e-05 
         450      58.3714      1.00004  0.000969927  1.59044e-05 
         450      58.7035      1.00004  0.000969933  1.61083e-05 
         450      59.0367      1.00004  0.000969939  1.63129e-05 
         450      59.3707      1.00004  0.000969941  1.65185e-05 
         450      59.7056      1.00004   0.00096993  1.67258e-05 
         450      60.0414      1.00004    0.0009699   1.6935e-05 
         450      60.3784      1.00004  0.000969853  1.71453e-05 
         450      60.7161      1.00004  0.000969806  1.73545e-05 
         450      61.0548      1.00004  0.000969814  1.75522e-05 
         450      61.3944      1.00005  0.000969908  1.77664e-05 
         450      61.7351      1.00005   0.00096985   1.7989e-05 
         450      62.0767      1.00005  0.000969786  1.82066e-05 
         450      62.4191      1.00005  0.000969771  1.84247e-05 
         450      62.7625      1.00005  0.000969776  1.86421e-05 
         450       63.107      1.00005  0.000969783   1.8858e-05 
         450      63.4523      1.00005  0.000969783  1.90716e-05 
         450      63.7985      1.00005  0.000969773  1.92828e-05 
         450      64.1458      1.00005  0.000969755  1.94918e-05 
         450      64.4939      1.00005  0.000969739   1.9696e-05 
         450       64.843      1.00005  0.000969723  1.99014e-05 
         450      65.1929      1.00005  0.000969705  2.01093e-05 
         450       65.544      1.00005   0.00096969  2.03199e-05 
         450      65.8959      1.00005  0.000969678  2.05332e-05 
         450      66.2487      1.00005  0.000969669  2.07489e-05 
         450      66.6025      1.00005  0.000969664  2.09669e-05 
         450      66.9573      1.00006  0.000969662  2.11868e-05 
         450       67.313      1.00006   0.00096966  2.14081e-05 
         450      67.6695      1.00006  0.000969658  2.16303e-05 
         450      68.0271      1.00006  0.000969654  2.18533e-05 
         450      68.3857      1.00006  0.000969646  2.20766e-05 
         450      68.7451      1.00006  0.000969634  2.22999e-05 
         450      69.1055      1.00006  0.000969617   2.2523e-05 
         450      69.4669      1.00006  0.000969598   2.2746e-05 
         450      69.8291      1.00006  0.000969576  2.29686e-05 
         450      70.1923      1.00006  0.000969554  2.31912e-05 
         450      70.5564      1.00006  0.000969533  2.34138e-05 
         450      70.9217      1.00006  0.000969516  2.36369e-05 
         450      71.2877      1.00006  0.000969503  2.38607e-05 
         450      71.6546      1.00006  0.000969496  2.40855e-05 
         450      72.0225      1.00007  0.000969493  2.43117e-05 
         450      72.3915      1.00007  0.000969492  2.45396e-05 
         450      72.7613      1.00007   0.00096949  2.47691e-05 
         450       73.132      1.00007  0.000969482      2.5e-05 
         450      73.5036      1.00007  0.000969462  2.52319e-05 
         450      73.8764      1.00007  0.000969429  2.54638e-05 
         450      74.2499      1.00006  0.000969405  2.57038e-05 
         450      74.6244      1.00004  0.000969433  2.59697e-05 
         450           75            1  0.000969424  2.62439e-05 
