Variables = x, y, u, v, p

Zone, I=400, F=POINT
         600            0  1.05709e-14 -1.79603e-27 -1.40795e-05 
         600     0.000471  0.000161461  2.02679e-11 -1.40794e-05 
         600     0.001884  0.000645845  3.24287e-10 -1.40792e-05 
         600     0.004239   0.00145315   1.6417e-09 -1.40787e-05 
         600     0.007537   0.00258373  5.18997e-09 -1.40781e-05 
         600     0.011776   0.00403688  1.26696e-08 -1.40774e-05 
         600     0.016958    0.0058133  2.62735e-08 -1.40764e-05 
         600     0.023081    0.0079123  4.86718e-08 -1.40753e-05 
         600      0.03015    0.0103356  8.30507e-08  -1.4074e-05 
         600     0.038157    0.0130804   1.3302e-07 -1.40725e-05 
         600     0.047107    0.0161486   2.0274e-07 -1.40709e-05 
         600     0.056999    0.0195396  2.96827e-07 -1.40691e-05 
         600     0.067837    0.0232549  4.20439e-07 -1.40671e-05 
         600     0.079614    0.0272921  5.79093e-07  -1.4065e-05 
         600     0.092332    0.0316518  7.78885e-07 -1.40626e-05 
         600     0.105992    0.0363345  1.02639e-06 -1.40601e-05 
         600       0.1206     0.041342   1.3288e-06 -1.40575e-05 
         600     0.136145    0.0466706  1.69342e-06 -1.40546e-05 
         600     0.152631    0.0523216  2.12835e-06 -1.40516e-05 
         600     0.170067    0.0582981  2.64236e-06 -1.40484e-05 
         600     0.188438    0.0645948  3.24399e-06 -1.40451e-05 
         600     0.207751    0.0712139  3.94292e-06 -1.40415e-05 
         600     0.228006    0.0781553  4.74909e-06 -1.40378e-05 
         600     0.249212     0.085422  5.67333e-06  -1.4034e-05 
         600     0.271351    0.0930074  6.72575e-06 -1.40299e-05 
         600     0.294433     0.100915  7.91813e-06 -1.40257e-05 
         600     0.318456     0.109143   9.2622e-06 -1.40213e-05 
         600     0.343432     0.117696   1.0771e-05 -1.40167e-05 
         600     0.369339     0.126565  1.24558e-05  -1.4012e-05 
         600     0.396189     0.135754  1.43307e-05  -1.4007e-05 
         600     0.423981     0.145261   1.6409e-05 -1.40019e-05 
         600     0.452726      0.15509  1.87057e-05 -1.39967e-05 
         600     0.482403     0.165232  2.12335e-05 -1.39912e-05 
         600     0.513021     0.175689  2.40079e-05 -1.39856e-05 
         600     0.544594     0.186465  2.70453e-05 -1.39797e-05 
         600     0.577096     0.197547  3.03586e-05 -1.39737e-05 
         600     0.610541      0.20894  3.39649e-05 -1.39675e-05 
         600     0.644927      0.22064  3.78799e-05 -1.39612e-05 
         600      0.68027     0.232649  4.21218e-05 -1.39546e-05 
         600     0.716541     0.244955  4.67034e-05 -1.39478e-05 
         600     0.753754     0.257559  5.16428e-05 -1.39409e-05 
         600     0.791909     0.270457  5.69564e-05 -1.39337e-05 
         600     0.831022      0.28365  6.26632e-05 -1.39263e-05 
         600     0.871061     0.297121  6.87748e-05 -1.39187e-05 
         600     0.912043     0.310871  7.53097e-05 -1.39109e-05 
         600     0.953966     0.324893  8.22836e-05 -1.39029e-05 
         600     0.996849     0.339185  8.97152e-05 -1.38946e-05 
         600      1.04066     0.353728  9.76133e-05 -1.38861e-05 
         600      1.08541      0.36852  0.000105995 -1.38773e-05 
         600      1.13112     0.383555  0.000114879 -1.38683e-05 
         600      1.17775     0.398813  0.000124268  -1.3859e-05 
         600      1.22533     0.414286   0.00013418 -1.38494e-05 
         600      1.27384     0.429963  0.000144622 -1.38395e-05 
         600      1.32333     0.445835   0.00015561 -1.38293e-05 
         600      1.37373     0.461875  0.000167142 -1.38188e-05 
         600      1.42507     0.478074  0.000179226 -1.38079e-05 
         600      1.47736     0.494413  0.000191867 -1.37967e-05 
         600      1.53061     0.510881  0.000205071 -1.37851e-05 
         600      1.58478     0.527444  0.000218825 -1.37731e-05 
         600      1.63989     0.544087  0.000233131 -1.37607e-05 
         600      1.69595     0.560789  0.000247982 -1.37478e-05 
         600      1.75297      0.57753  0.000263373 -1.37344e-05 
         600      1.81091     0.594274  0.000279279 -1.37206e-05 
         600      1.86979     0.610999  0.000295688 -1.37062e-05 
         600      1.92964     0.627686  0.000312588 -1.36913e-05 
         600       1.9904     0.644291   0.00032994 -1.36758e-05 
         600      2.05211     0.660793  0.000347722 -1.36597e-05 
         600      2.11476      0.67716  0.000365901  -1.3643e-05 
         600      2.17838     0.693368  0.000384449 -1.36257e-05 
         600      2.24291     0.709372  0.000403311 -1.36076e-05 
         600      2.30839     0.725147  0.000422449 -1.35889e-05 
         600       2.3748     0.740661  0.000441816 -1.35694e-05 
         600      2.44219     0.755886  0.000461366 -1.35491e-05 
         600      2.51049     0.770781  0.000481031 -1.35281e-05 
         600      2.57974     0.785321  0.000500759 -1.35062e-05 
         600      2.64993     0.799474   0.00052049 -1.34835e-05 
         600      2.72108     0.813219  0.000540169 -1.34599e-05 
         600      2.79315     0.826517  0.000559716 -1.34354e-05 
         600      2.86617     0.839349  0.000579075 -1.34102e-05 
         600      2.94012     0.851692  0.000598178  -1.3384e-05 
         600      3.01505     0.863529  0.000616969 -1.33569e-05 
         600      3.09089     0.874834   0.00063537 -1.33289e-05 
         600      3.16767     0.885597  0.000653326 -1.32998e-05 
         600      3.24542     0.895809  0.000670784 -1.32699e-05 
         600      3.32409     0.905454  0.000687675  -1.3239e-05 
         600       3.4037     0.914532  0.000703955 -1.32072e-05 
         600      3.48425      0.92304  0.000719577 -1.31745e-05 
         600      3.56577     0.930985  0.000734508  -1.3141e-05 
         600       3.6482     0.938364  0.000748699 -1.31067e-05 
         600      3.73158     0.945191  0.000762129 -1.30714e-05 
         600       3.8159     0.951477  0.000774777 -1.30353e-05 
         600      3.90119      0.95724  0.000786632 -1.29982e-05 
         600       3.9874     0.962492  0.000797678 -1.29604e-05 
         600      4.07454     0.967258   0.00080792 -1.29217e-05 
         600      4.16263     0.971559  0.000817365 -1.28823e-05 
         600      4.25169     0.975422   0.00082603 -1.28422e-05 
         600      4.34166     0.978869  0.000833927 -1.28015e-05 
         600      4.43258     0.981929  0.000841086 -1.27602e-05 
         600      4.52447     0.984631  0.000847539 -1.27179e-05 
         600      4.61726     0.987001  0.000853314 -1.26753e-05 
         600        4.711     0.989068  0.000858455  -1.2632e-05 
         600      4.80569     0.990859     0.000863 -1.25876e-05 
         600      4.90135     0.992402  0.000866995 -1.25433e-05 
         600      4.99791     0.993722  0.000870478 -1.24982e-05 
         600      5.09542     0.994843  0.000873497 -1.24525e-05 
         600      5.19387      0.99579  0.000876095 -1.24061e-05 
         600       5.2933     0.996584  0.000878315 -1.23593e-05 
         600      5.39364     0.997244  0.000880198  -1.2312e-05 
         600      5.49491      0.99779  0.000881783 -1.22642e-05 
         600      5.59713     0.998237  0.000883108  -1.2216e-05 
         600      5.70033     0.998602  0.000884207 -1.21672e-05 
         600      5.80443     0.998896  0.000885111  -1.2118e-05 
         600      5.90948     0.999131  0.000885849 -1.20683e-05 
         600      6.01551     0.999319  0.000886446  -1.2018e-05 
         600      6.12244     0.999467  0.000886927 -1.19673e-05 
         600      6.23031     0.999582   0.00088731 -1.19162e-05 
         600      6.33912     0.999672  0.000887612 -1.18646e-05 
         600      6.44892     0.999741  0.000887849 -1.18126e-05 
         600      6.55962     0.999794  0.000888033 -1.17602e-05 
         600      6.67126     0.999833  0.000888174 -1.17073e-05 
         600      6.78384     0.999863  0.000888283 -1.16538e-05 
         600      6.89741     0.999885  0.000888365 -1.15999e-05 
         600      7.01187     0.999901  0.000888428 -1.15456e-05 
         600      7.12728     0.999913  0.000888474 -1.14909e-05 
         600      7.24363     0.999922   0.00088851 -1.14359e-05 
         600      7.36097     0.999928  0.000888536 -1.13805e-05 
         600       7.4792     0.999933  0.000888555 -1.13244e-05 
         600      7.59838     0.999936  0.000888568 -1.12677e-05 
         600      7.71854     0.999938  0.000888581 -1.12106e-05 
         600       7.8396      0.99994   0.00088859 -1.11531e-05 
         600      7.96161     0.999941  0.000888597 -1.10952e-05 
         600      8.08455     0.999942  0.000888602 -1.10368e-05 
         600      8.20849     0.999943  0.000888607 -1.09779e-05 
         600      8.33332     0.999943  0.000888611 -1.09187e-05 
         600      8.45909     0.999943  0.000888615 -1.08591e-05 
         600       8.5858     0.999944  0.000888618 -1.07992e-05 
         600      8.71351     0.999944  0.000888622 -1.07384e-05 
         600       8.8421     0.999945  0.000888625 -1.06775e-05 
         600      8.97164     0.999945  0.000888627 -1.06162e-05 
         600      9.10212     0.999945   0.00088863 -1.05543e-05 
         600       9.2336     0.999945  0.000888633 -1.04919e-05 
         600      9.36596     0.999946  0.000888636  -1.0429e-05 
         600      9.49927     0.999946  0.000888639 -1.03657e-05 
         600      9.63352     0.999946  0.000888641  -1.0302e-05 
         600      9.76877     0.999946  0.000888644  -1.0238e-05 
         600       9.9049     0.999947  0.000888647 -1.01734e-05 
         600       10.042     0.999947   0.00088865 -1.01084e-05 
         600      10.1801     0.999947  0.000888653 -1.00429e-05 
         600       10.319     0.999948  0.000888657 -9.97686e-06 
         600      10.4589     0.999948   0.00088866 -9.91042e-06 
         600      10.5998     0.999948  0.000888664 -9.84375e-06 
         600      10.7416     0.999948  0.000888666 -9.77706e-06 
         600      10.8843     0.999949  0.000888668 -9.71065e-06 
         600       11.028     0.999949  0.000888669 -9.64224e-06 
         600      11.1726     0.999949  0.000888676 -9.57249e-06 
         600      11.3182      0.99995  0.000888672 -9.50005e-06 
         600      11.4647      0.99995  0.000888681 -9.43217e-06 
         600      11.6122      0.99995  0.000888686 -9.36312e-06 
         600      11.7605     0.999951  0.000888689 -9.29305e-06 
         600      11.9099     0.999951   0.00088869  -9.2222e-06 
         600      12.0602     0.999951  0.000888691 -9.15087e-06 
         600      12.2114     0.999951  0.000888694 -9.07919e-06 
         600      12.3636     0.999952  0.000888699 -9.00722e-06 
         600      12.5167     0.999952  0.000888703 -8.93497e-06 
         600      12.6707     0.999952  0.000888708 -8.86229e-06 
         600      12.8257     0.999953  0.000888711 -8.78906e-06 
         600      12.9817     0.999953  0.000888714 -8.71511e-06 
         600      13.1386     0.999953  0.000888716 -8.64047e-06 
         600      13.2964     0.999954  0.000888718 -8.56518e-06 
         600      13.4551     0.999954  0.000888721 -8.48941e-06 
         600      13.6149     0.999954  0.000888725 -8.41334e-06 
         600      13.7755     0.999955  0.000888728 -8.33716e-06 
         600      13.9371     0.999955   0.00088873 -8.26066e-06 
         600      14.0996     0.999955  0.000888734 -8.18409e-06 
         600      14.2631     0.999956  0.000888735 -8.10711e-06 
         600      14.4275     0.999956  0.000888738  -8.0283e-06 
         600      14.5928     0.999956  0.000888743 -7.94933e-06 
         600      14.7592     0.999957  0.000888747 -7.87082e-06 
         600      14.9264     0.999957  0.000888748 -7.79269e-06 
         600      15.0946     0.999957  0.000888748 -7.71408e-06 
         600      15.2637     0.999958  0.000888754 -7.63356e-06 
         600      15.4338     0.999958  0.000888754 -7.55163e-06 
         600      15.6048     0.999958  0.000888756 -7.47019e-06 
         600      15.7767     0.999959  0.000888761  -7.3885e-06 
         600      15.9496     0.999959  0.000888764 -7.30625e-06 
         600      16.1235     0.999959  0.000888767 -7.22339e-06 
         600      16.2982      0.99996   0.00088877 -7.14008e-06 
         600      16.4739      0.99996  0.000888772 -7.05645e-06 
         600      16.6506      0.99996  0.000888774  -6.9726e-06 
         600      16.8282     0.999961  0.000888777 -6.88848e-06 
         600      17.0068     0.999961   0.00088878 -6.80404e-06 
         600      17.1862     0.999961  0.000888783 -6.71901e-06 
         600      17.3667     0.999962  0.000888788 -6.63323e-06 
         600      17.5481     0.999962  0.000888793 -6.54696e-06 
         600      17.7304     0.999962  0.000888795 -6.46109e-06 
         600      17.9136     0.999963  0.000888796 -6.37356e-06 
         600      18.0979     0.999963  0.000888798 -6.28532e-06 
         600       18.283     0.999964  0.000888801 -6.19837e-06 
         600      18.4691     0.999964  0.000888807 -6.11213e-06 
         600      18.6561     0.999964  0.000888809 -6.02605e-06 
         600      18.8441     0.999965  0.000888804 -5.93944e-06 
         600       19.033     0.999965  0.000888822 -5.85099e-06 
         600      19.2228     0.999965  0.000888812 -5.76028e-06 
         600      19.4136     0.999966  0.000888816 -5.66819e-06 
         600      19.6054     0.999966  0.000888823 -5.57545e-06 
         600       19.798     0.999967  0.000888829 -5.48258e-06 
         600      19.9917     0.999967  0.000888832 -5.38973e-06 
         600      20.1862     0.999967  0.000888834 -5.29696e-06 
         600      20.3818     0.999968  0.000888836 -5.20418e-06 
         600      20.5782     0.999968  0.000888839 -5.11133e-06 
         600      20.7756     0.999969  0.000888843 -5.01813e-06 
         600       20.974     0.999969  0.000888843 -4.92406e-06 
         600      21.1732     0.999969  0.000888833 -4.82841e-06 
         600      21.3734      0.99997  0.000888846 -4.73066e-06 
         600      21.5745      0.99997  0.000888854 -4.63384e-06 
         600      21.7767     0.999971  0.000888855 -4.53724e-06 
         600      21.9797     0.999971  0.000888854 -4.44054e-06 
         600      22.1837     0.999971  0.000888853 -4.34361e-06 
         600      22.3886     0.999972  0.000888852 -4.24644e-06 
         600      22.5945     0.999972  0.000888852 -4.14897e-06 
         600      22.8013     0.999973  0.000888853 -4.05115e-06 
         600      23.0091     0.999973  0.000888856 -3.95275e-06 
         600      23.2177     0.999973  0.000888862 -3.85365e-06 
         600      23.4274     0.999974   0.00088887 -3.75397e-06 
         600       23.638     0.999974  0.000888876  -3.6546e-06 
         600      23.8495     0.999975  0.000888874  -3.5563e-06 
         600       24.062     0.999975  0.000888884 -3.45428e-06 
         600      24.2754     0.999975  0.000888883 -3.35408e-06 
         600      24.4897     0.999976  0.000888882 -3.25387e-06 
         600       24.705     0.999976  0.000888883  -3.1529e-06 
         600      24.9213     0.999977  0.000888885 -3.05092e-06 
         600      25.1385     0.999977  0.000888888 -2.94797e-06 
         600      25.3566     0.999978   0.00088889 -2.84404e-06 
         600      25.5756     0.999978  0.000888891 -2.73916e-06 
         600      25.7957     0.999978  0.000888891 -2.63346e-06 
         600      26.0166     0.999979   0.00088889 -2.52747e-06 
         600      26.2385     0.999979  0.000888889 -2.42196e-06 
         600      26.4613      0.99998  0.000888889 -2.31817e-06 
         600      26.6851      0.99998  0.000888895 -2.20904e-06 
         600      26.9098     0.999981    0.0008889 -2.10158e-06 
         600      27.1354     0.999981  0.000888903 -1.99547e-06 
         600      27.3621     0.999982  0.000888903 -1.88952e-06 
         600      27.5896     0.999982  0.000888903 -1.78262e-06 
         600      27.8181     0.999982  0.000888907 -1.67408e-06 
         600      28.0475     0.999983  0.000888915 -1.56467e-06 
         600      28.2779     0.999983   0.00088892 -1.45766e-06 
         600      28.5092     0.999984  0.000888906 -1.34792e-06 
         600      28.7414     0.999984  0.000888918 -1.22669e-06 
         600      28.9746     0.999985  0.000888931 -1.11484e-06 
         600      29.2088     0.999985  0.000888933 -1.00801e-06 
         600      29.4439     0.999986  0.000888925 -9.02864e-07 
         600      29.6799     0.999986  0.000888914 -7.96882e-07 
         600      29.9168     0.999987  0.000888905 -6.88495e-07 
         600      30.1548     0.999987  0.000888903 -5.76935e-07 
         600      30.3936     0.999988  0.000888907 -4.62293e-07 
         600      30.6334     0.999988  0.000888918 -3.45094e-07 
         600      30.8742     0.999988  0.000888931 -2.26242e-07 
         600      31.1158     0.999989  0.000888942  -1.0696e-07 
         600      31.3584     0.999989   0.00088895  1.16942e-08 
         600       31.602      0.99999  0.000888951  1.28844e-07 
         600      31.8465      0.99999  0.000888948  2.44055e-07 
         600      32.0919     0.999991  0.000888941  3.57281e-07 
         600      32.3383     0.999991  0.000888934  4.69216e-07 
         600      32.5856     0.999992  0.000888931   5.8109e-07 
         600       32.834     0.999992  0.000888933  6.94657e-07 
         600      33.0831     0.999993  0.000888937   8.1176e-07 
         600      33.3333     0.999993  0.000888939  9.34216e-07 
         600      33.5843     0.999994  0.000888931  1.06305e-06 
         600      33.8364     0.999994  0.000888928  1.19147e-06 
         600      34.0894     0.999995  0.000888926  1.32081e-06 
         600      34.3433     0.999995  0.000888937  1.43909e-06 
         600      34.5981     0.999996  0.000889009  1.51756e-06 
         600       34.854     0.999996   0.00088894  1.65117e-06 
         600      35.1107     0.999997  0.000888925  1.79596e-06 
         600      35.3684     0.999997  0.000888935   1.9263e-06 
         600      35.6271     0.999998  0.000888953  2.04805e-06 
         600      35.8867     0.999998  0.000888967   2.1662e-06 
         600      36.1472     0.999999  0.000888973  2.28406e-06 
         600      36.4086     0.999999  0.000888971  2.40347e-06 
         600      36.6711            1  0.000888963  2.52529e-06 
         600      36.9344            1  0.000888952  2.64952e-06 
         600      37.1987            1  0.000888944  2.77586e-06 
         600      37.4639            1   0.00088894  2.90373e-06 
         600      37.7301            1  0.000888943  3.03254e-06 
         600      37.9972            1  0.000888951  3.16162e-06 
         600      38.2652            1  0.000888963  3.29056e-06 
         600      38.5342            1  0.000888974  3.41913e-06 
         600      38.8042            1   0.00088898  3.54732e-06 
         600      39.0751            1  0.000888978  3.67516e-06 
         600      39.3469            1  0.000888968  3.80299e-06 
         600      39.6197      1.00001   0.00088895  3.93126e-06 
         600      39.8934      1.00001  0.000888931  4.06031e-06 
         600       40.168      1.00001   0.00088892  4.19066e-06 
         600      40.4436      1.00001  0.000888922  4.32275e-06 
         600      40.7202      1.00001   0.00088894  4.45705e-06 
         600      40.9977      1.00001  0.000888961  4.59387e-06 
         600      41.2761      1.00001  0.000888942  4.73375e-06 
         600      41.5554      1.00001  0.000888959  4.86135e-06 
         600      41.8358      1.00001  0.000888968  4.98579e-06 
         600       42.117      1.00001  0.000888951  5.11273e-06 
         600      42.3992      1.00001   0.00088893  5.24182e-06 
         600      42.6823      1.00001  0.000888917  5.37314e-06 
         600      42.9664      1.00001  0.000888914  5.50703e-06 
         600      43.2514      1.00001   0.00088892  5.64363e-06 
         600      43.5373      1.00001  0.000888934    5.783e-06 
         600      43.8243      1.00001   0.00088895  5.92477e-06 
         600      44.1121      1.00001  0.000888965  6.06774e-06 
         600      44.4009      1.00002  0.000888975  6.21012e-06 
         600      44.6906      1.00002  0.000888973  6.34912e-06 
         600      44.9813      1.00002  0.000888955  6.48097e-06 
         600      45.2729      1.00002  0.000888913   6.6006e-06 
         600      45.5654      1.00002  0.000888932  6.76157e-06 
         600      45.8589      1.00002  0.000888944  6.91276e-06 
         600      46.1534      1.00002   0.00088894  7.04367e-06 
         600      46.4488      1.00002  0.000888945  7.17377e-06 
         600      46.7451      1.00002  0.000888958  7.31101e-06 
         600      47.0423      1.00002   0.00088897  7.45583e-06 
         600      47.3406      1.00002  0.000888969  7.60485e-06 
         600      47.6397      1.00002  0.000888951  7.75344e-06 
         600      47.9398      1.00002  0.000888923  7.89816e-06 
         600      48.2409      1.00002  0.000888899  8.03777e-06 
         600      48.5428      1.00002  0.000888898   8.1735e-06 
         600      48.8457      1.00002  0.000888927  8.30881e-06 
         600      49.1496      1.00002  0.000888965   8.4477e-06 
         600      49.4545      1.00003  0.000888931  8.59228e-06 
         600      49.7602      1.00003  0.000888874  8.74235e-06 
         600      50.0668      1.00003  0.000888965  8.89614e-06 
         600      50.3744      1.00003  0.000888942  9.05062e-06 
         600      50.6831      1.00003  0.000888896   9.2062e-06 
         600      50.9926      1.00003  0.000888864  9.36056e-06 
         600       51.303      1.00003  0.000888854  9.51106e-06 
         600      51.6144      1.00003  0.000888861  9.65594e-06 
         600      51.9268      1.00003  0.000888875  9.79517e-06 
         600        52.24      1.00003  0.000888889  9.93043e-06 
         600      52.5542      1.00003  0.000888899  1.00651e-05 
         600      52.8694      1.00003  0.000888902  1.02035e-05 
         600      53.1856      1.00003  0.000888895  1.03494e-05 
         600      53.5026      1.00003  0.000888878  1.05053e-05 
         600      53.8205      1.00003   0.00088885  1.06704e-05 
         600      54.1396      1.00003  0.000888816  1.08399e-05 
         600      54.4594      1.00003  0.000888795  1.10026e-05 
         600      54.7802      1.00004  0.000888829  1.11408e-05 
         600      55.1019      1.00004  0.000888876  1.12792e-05 
         600      55.4247      1.00004  0.000888859  1.14481e-05 
         600      55.7483      1.00004  0.000888866  1.16063e-05 
         600      56.0729      1.00004  0.000888875   1.1759e-05 
         600      56.3984      1.00004  0.000888877  1.19096e-05 
         600       56.725      1.00004  0.000888865  1.20606e-05 
         600      57.0523      1.00004  0.000888843  1.22135e-05 
         600      57.3807      1.00004  0.000888817  1.23693e-05 
         600      57.7099      1.00004  0.000888798  1.25285e-05 
         600      58.0403      1.00004  0.000888797  1.26909e-05 
         600      58.3714      1.00004  0.000888818  1.28558e-05 
         600      58.7035      1.00004  0.000888851  1.30214e-05 
         600      59.0367      1.00004  0.000888864  1.31844e-05 
         600      59.3707      1.00004  0.000888786  1.33392e-05 
         600      59.7056      1.00005  0.000888707  1.34906e-05 
         600      60.0414      1.00005  0.000888827  1.36523e-05 
         600      60.3784      1.00005  0.000888863  1.38071e-05 
         600      60.7161      1.00005  0.000888852  1.39587e-05 
         600      61.0548      1.00005  0.000888821  1.41101e-05 
         600      61.3944      1.00005  0.000888787  1.42634e-05 
         600      61.7351      1.00005  0.000888758  1.44201e-05 
         600      62.0767      1.00005  0.000888738  1.45807e-05 
         600      62.4191      1.00005  0.000888728  1.47455e-05 
         600      62.7625      1.00005  0.000888725   1.4914e-05 
         600       63.107      1.00005  0.000888728  1.50856e-05 
         600      63.4523      1.00005  0.000888733  1.52589e-05 
         600      63.7985      1.00005  0.000888739  1.54331e-05 
         600      64.1458      1.00006  0.000888742  1.56068e-05 
         600      64.4939      1.00006  0.000888743   1.5779e-05 
         600       64.843      1.00006  0.000888738  1.59488e-05 
         600      65.1929      1.00006   0.00088873  1.61158e-05 
         600       65.544      1.00006  0.000888718  1.62799e-05 
         600      65.8959      1.00006  0.000888702  1.64414e-05 
         600      66.2487      1.00006  0.000888684  1.66011e-05 
         600      66.6025      1.00006  0.000888665    1.676e-05 
         600      66.9573      1.00006  0.000888647  1.69198e-05 
         600       67.313      1.00006   0.00088863  1.70817e-05 
         600      67.6695      1.00006  0.000888616  1.72473e-05 
         600      68.0271      1.00006  0.000888607  1.74174e-05 
         600      68.3857      1.00006  0.000888602  1.75921e-05 
         600      68.7451      1.00007  0.000888603  1.77697e-05 
         600      69.1055      1.00007  0.000888608  1.79469e-05 
         600      69.4669      1.00007  0.000888615  1.81173e-05 
         600      69.8291      1.00007  0.000888619  1.82705e-05 
         600      70.1923      1.00007  0.000888611  1.84182e-05 
         600      70.5564      1.00007  0.000888604  1.86245e-05 
         600      70.9217      1.00007  0.000888595  1.88138e-05 
         600      71.2877      1.00007  0.000888583   1.8991e-05 
         600      71.6546      1.00007  0.000888569  1.91605e-05 
         600      72.0225      1.00007  0.000888553  1.93257e-05 
         600      72.3915      1.00007  0.000888536  1.94892e-05 
         600      72.7613      1.00007  0.000888519  1.96528e-05 
         600       73.132      1.00007  0.000888506  1.98179e-05 
         600      73.5036      1.00007  0.000888497  1.99853e-05 
         600      73.8764      1.00007  0.000888496  2.01549e-05 
         600      74.2499      1.00006  0.000888501  2.03256e-05 
         600      74.6244      1.00004   0.00088851  2.04956e-05 
         600           75            1  0.000888511  2.06614e-05 
