Variables = x, y, u, v, p

Zone, I=416, F=POINT
         -50            0 -4.72898e-19 -4.69835e-23      -95.401 
         -50     0.013333 -0.000420414 -1.19887e-07      -95.401 
         -50     0.053333 -0.000384178 -5.17614e-07      -95.401 
         -50         0.12 -0.000366077 -1.38298e-06      -95.401 
         -50     0.213332 -0.000355054 -2.75524e-06     -95.4009 
         -50     0.333332 -0.000349083 -4.48148e-06     -95.4008 
         -50         0.48 -0.000347029 -6.81961e-06     -95.4007 
         -50     0.653331 -0.000349367 -8.32523e-06     -95.4003 
         -50     0.853332 -0.000355511 -1.11128e-05     -95.3999 
         -50         1.08 -0.000364348 -1.40283e-05     -95.3992 
         -50      1.33333 -0.000374064 -1.65515e-05     -95.3982 
         -50      1.61333 -0.000383068  -1.9582e-05     -95.3969 
         -50         1.92    -0.000393 -2.03807e-05     -95.3953 
         -50      2.25333  -0.00039274 -2.28738e-05     -95.3931 
         -50      2.61333  -0.00038654  -2.6321e-05     -95.3904 
         -50            3 -0.000382429  -2.5853e-05      -95.387 
         -25            0           -0           -0     -91.5615 
         -25     0.013333 -0.000308607 -1.45344e-08     -91.5615 
         -25     0.053333 -0.000292271  2.15435e-07     -91.5615 
         -25         0.12 -0.000305302  1.20114e-06     -91.5615 
         -25     0.213332 -0.000331725  3.15055e-06     -91.5615 
         -25     0.333332 -0.000354145  5.73775e-06     -91.5615 
         -25         0.48 -0.000364252  8.61445e-06     -91.5614 
         -25     0.653331  -0.00036226  1.15271e-05     -91.5613 
         -25     0.853332 -0.000350326  1.44312e-05     -91.5611 
         -25         1.08 -0.000333356  1.69144e-05     -91.5608 
         -25      1.33333 -0.000313946  1.84209e-05     -91.5605 
         -25      1.61333 -0.000292576  1.91269e-05       -91.56 
         -25         1.92 -0.000276584  1.69752e-05     -91.5593 
         -25      2.25333 -0.000268072  1.54757e-05     -91.5585 
         -25      2.61333 -0.000260987  1.40803e-05     -91.5575 
         -25            3 -0.000256593  7.93924e-06     -91.5562 
           0            0 -5.74896e-15  4.10342e-15     -88.3872 
           0     0.013333  -0.00093897  0.000580899     -88.3914 
           0     0.053333 -0.000581731  0.000311204      -88.398 
           0         0.12 -0.000463609  0.000210921     -88.4056 
           0     0.213332  -0.00041447   0.00016606     -88.4138 
           0     0.333332 -0.000387757   0.00013744     -88.4223 
           0         0.48 -0.000366198   0.00011541      -88.431 
           0     0.653331 -0.000349031  9.78867e-05     -88.4396 
           0     0.853332 -0.000331858  8.34532e-05     -88.4482 
           0         1.08 -0.000310865  7.15289e-05     -88.4566 
           0      1.33333 -0.000287921  6.15856e-05     -88.4647 
           0      1.61333 -0.000264604  5.31931e-05     -88.4724 
           0         1.92 -0.000240029   4.6154e-05     -88.4798 
           0      2.25333 -0.000218813  4.05552e-05     -88.4867 
           0      2.61333 -0.000201638  3.59022e-05     -88.4931 
           0            3 -0.000192504  3.10706e-05      -88.499 
          20            0            0            0     -86.4805 
          20     0.013333 -0.000235308 -2.50477e-08     -86.4805 
          20     0.053333 -0.000200938 -1.01711e-07     -86.4805 
          20         0.12 -0.000176901 -1.89952e-07     -86.4805 
          20     0.213332 -0.000163945 -8.64321e-08     -86.4805 
          20     0.333332 -0.000161979  4.90293e-07     -86.4805 
          20         0.48 -0.000165918  1.69964e-06     -86.4804 
          20     0.653331 -0.000170439  3.54163e-06     -86.4804 
          20     0.853332 -0.000174182  5.84138e-06     -86.4803 
          20         1.08  -0.00018027  8.21816e-06     -86.4801 
          20      1.33333  -0.00018958  1.02987e-05     -86.4799 
          20      1.61333 -0.000200807    1.186e-05     -86.4796 
          20         1.92 -0.000211357  1.26692e-05     -86.4792 
          20      2.25333  -0.00022023  1.28061e-05     -86.4788 
          20      2.61333 -0.000225674  1.24712e-05     -86.4782 
          20            3 -0.000226758   1.1593e-05     -86.4774 
          40            0            0            0     -84.4839 
          40     0.013333 -0.000226783 -2.04351e-08     -84.4839 
          40     0.053333 -0.000212646 -2.22304e-07     -84.4839 
          40         0.12 -0.000200194 -9.79409e-07     -84.4839 
          40     0.213332 -0.000178378  -2.6781e-06     -84.4839 
          40     0.333332 -0.000151381  -5.4284e-06     -84.4838 
          40         0.48  -0.00012873 -9.01168e-06     -84.4838 
          40     0.653331 -0.000117139 -1.31633e-05     -84.4838 
          40     0.853332 -0.000118291 -1.77599e-05     -84.4838 
          40         1.08 -0.000129325  -2.2571e-05     -84.4837 
          40      1.33333  -0.00014473 -2.70962e-05     -84.4836 
          40      1.61333 -0.000162098 -3.06887e-05     -84.4835 
          40         1.92 -0.000180462 -3.28629e-05     -84.4834 
          40      2.25333 -0.000192015 -3.34102e-05     -84.4832 
          40      2.61333 -0.000201862 -3.31522e-05      -84.483 
          40            3 -0.000215971 -3.33282e-05     -84.4828 
          60            0           -0           -0     -82.5905 
          60     0.013333  -0.00024204  1.37671e-08     -82.5905 
          60     0.053333 -0.000295961  1.92585e-07     -82.5905 
          60         0.12 -0.000374075  4.65701e-07     -82.5905 
          60     0.213332  -0.00042975 -5.61868e-08     -82.5905 
          60     0.333332 -0.000443873 -2.63427e-06     -82.5905 
          60         0.48 -0.000432279 -7.82746e-06     -82.5905 
          60     0.653331 -0.000416813 -1.51054e-05     -82.5905 
          60     0.853332    -0.000398 -2.31821e-05     -82.5905 
          60         1.08 -0.000365868 -3.09324e-05     -82.5904 
          60      1.33333  -0.00032158 -3.77236e-05     -82.5904 
          60      1.61333 -0.000270693 -4.33429e-05     -82.5903 
          60         1.92 -0.000219258 -4.69664e-05     -82.5903 
          60      2.25333  -0.00018166 -4.85648e-05     -82.5901 
          60      2.61333 -0.000161828 -4.83714e-05       -82.59 
          60            3 -0.000152502 -4.56372e-05     -82.5899 
          80            0           -0           -0      -80.756 
          80     0.013333 -0.000224244  5.02319e-08      -80.756 
          80     0.053333 -0.000255863  7.28989e-07      -80.756 
          80         0.12 -0.000329803   2.9314e-06      -80.756 
          80     0.213332 -0.000412286  6.70812e-06      -80.756 
          80     0.333332  -0.00047035  1.11168e-05     -80.7559 
          80         0.48 -0.000495871  1.53152e-05     -80.7559 
          80     0.653331 -0.000494021  1.94306e-05     -80.7559 
          80     0.853332   -0.0004623  2.42974e-05     -80.7559 
          80         1.08 -0.000405907  2.99842e-05     -80.7559 
          80      1.33333 -0.000346538  3.54485e-05     -80.7559 
          80      1.61333 -0.000287678  3.96041e-05     -80.7558 
          80         1.92 -0.000221014    4.219e-05     -80.7558 
          80      2.25333 -0.000163389  4.28754e-05     -80.7557 
          80      2.61333 -0.000127398  4.12296e-05     -80.7556 
          80            3 -0.000116867  3.72621e-05     -80.7555 
         100            0            0            0     -78.9582 
         100     0.013333 -0.000199546  2.46046e-08     -78.9582 
         100     0.053333 -0.000171072  3.79801e-07     -78.9582 
         100         0.12 -0.000162871  1.65804e-06     -78.9582 
         100     0.213332 -0.000172099  4.25595e-06     -78.9582 
         100     0.333332 -0.000188142  8.17006e-06     -78.9582 
         100         0.48 -0.000200796  1.32812e-05     -78.9582 
         100     0.653331 -0.000203447  1.96357e-05     -78.9582 
         100     0.853332 -0.000192965  2.72468e-05     -78.9582 
         100         1.08 -0.000178473  3.54398e-05     -78.9582 
         100      1.33333 -0.000172946  4.29986e-05     -78.9581 
         100      1.61333 -0.000172815  4.91048e-05     -78.9581 
         100         1.92 -0.000171745  5.31235e-05     -78.9581 
         100      2.25333 -0.000170974  5.47801e-05      -78.958 
         100      2.61333  -0.00017092  5.40632e-05      -78.958 
         100            3 -0.000172098  5.14472e-05     -78.9579 
         150            0           -0           -0       -74.55 
         150     0.013333 -0.000184747 -4.09833e-09       -74.55 
         150     0.053333 -0.000125352 -2.20463e-09       -74.55 
         150         0.12 -7.61443e-05  3.14079e-07       -74.55 
         150     0.213332 -5.54967e-05  1.72593e-06       -74.55 
         150     0.333332 -6.25551e-05   4.9056e-06       -74.55 
         150         0.48 -7.82268e-05  9.77291e-06       -74.55 
         150     0.653331 -8.92545e-05  1.55972e-05       -74.55 
         150     0.853332   -9.913e-05  2.13721e-05       -74.55 
         150         1.08 -0.000116506  2.63054e-05       -74.55 
         150      1.33333 -0.000137863  3.02061e-05       -74.55 
         150      1.61333 -0.000157646  3.32201e-05       -74.55 
         150         1.92 -0.000176534  3.49288e-05       -74.55 
         150      2.25333 -0.000191797  3.51813e-05       -74.55 
         150      2.61333 -0.000201507  3.40642e-05     -74.5499 
         150            3 -0.000206749  3.15475e-05     -74.5499 
         200            0 -4.38274e-19 -1.85206e-25      -70.196 
         200     0.013333 -0.000183043  2.30838e-08      -70.196 
         200     0.053333 -0.000127898  3.71814e-07      -70.196 
         200         0.12 -9.28336e-05  1.81944e-06      -70.196 
         200     0.213332 -9.12499e-05  5.25815e-06      -70.196 
         200     0.333332 -0.000113597  1.11028e-05      -70.196 
         200         0.48 -0.000137946  1.91228e-05      -70.196 
         200     0.653331 -0.000149642  2.88333e-05      -70.196 
         200     0.853332 -0.000146552  3.97201e-05      -70.196 
         200         1.08 -0.000138899  5.09684e-05      -70.196 
         200      1.33333 -0.000139957  6.14091e-05      -70.196 
         200      1.61333 -0.000149332  7.01562e-05      -70.196 
         200         1.92 -0.000159439  7.63648e-05      -70.196 
         200      2.25333  -0.00016999  7.96009e-05      -70.196 
         200      2.61333 -0.000180021  7.96359e-05      -70.196 
         200            3 -0.000188709  7.66145e-05      -70.196 
         250            0           -0           -0       -65.86 
         250     0.013333 -0.000180123 -2.07712e-08       -65.86 
         250     0.053333   -0.0001071 -2.73199e-07       -65.86 
         250         0.12 -2.44693e-05 -9.82996e-07       -65.86 
         250     0.213332  4.50161e-05 -1.84403e-06       -65.86 
         250     0.333332  8.21431e-05 -2.04906e-06       -65.86 
         250         0.48  8.95171e-05    -9.44e-07       -65.86 
         250     0.653331  8.20566e-05   1.4942e-06       -65.86 
         250     0.853332  6.81021e-05  4.72288e-06       -65.86 
         250         1.08  4.40268e-05  8.01433e-06       -65.86 
         250      1.33333  7.45001e-06   1.0898e-05       -65.86 
         250      1.61333  -3.6877e-05  1.33641e-05       -65.86 
         250         1.92 -8.71467e-05  1.54009e-05       -65.86 
         250      2.25333 -0.000136988  1.67549e-05       -65.86 
         250      2.61333 -0.000181177  1.74445e-05       -65.86 
         250            3 -0.000215542  1.75366e-05       -65.86 
         300            0           -0           -0     -61.5298 
         300     0.013333 -0.000198883 -6.11397e-08     -61.5298 
         300     0.053333 -0.000162733 -9.00222e-07     -61.5298 
         300         0.12 -9.49032e-05 -3.93436e-06     -61.5298 
         300     0.213332  1.61695e-06 -1.00494e-05     -61.5298 
         300     0.333332  8.98368e-05 -1.87668e-05     -61.5298 
         300         0.48  0.000140785 -2.88571e-05     -61.5298 
         300     0.653331  0.000151469  -3.9579e-05     -61.5298 
         300     0.853332  0.000129346 -5.09871e-05     -61.5298 
         300         1.08  8.42343e-05 -6.29848e-05     -61.5298 
         300      1.33333  3.40494e-05 -7.45892e-05     -61.5298 
         300      1.61333 -1.26759e-05 -8.45415e-05     -61.5298 
         300         1.92 -6.45149e-05 -9.21188e-05     -61.5298 
         300      2.25333 -0.000116474 -9.65789e-05     -61.5298 
         300      2.61333 -0.000164577 -9.76384e-05     -61.5298 
         300            3 -0.000206558 -9.54317e-05     -61.5298 
         350            0           -0           -0     -57.2013 
         350     0.013333 -0.000207188  3.08838e-08     -57.2013 
         350     0.053333 -0.000218876  4.59136e-07     -57.2013 
         350         0.12 -0.000270653  2.03743e-06     -57.2013 
         350     0.213332 -0.000347696  5.29659e-06     -57.2013 
         350     0.333332 -0.000421298  1.00249e-05     -57.2013 
         350         0.48  -0.00046857  1.54475e-05     -57.2013 
         350     0.653331 -0.000486234  2.08963e-05     -57.2013 
         350     0.853332 -0.000481404  2.61341e-05     -57.2013 
         350         1.08 -0.000460577  3.11537e-05     -57.2013 
         350      1.33333 -0.000426283  3.59885e-05     -57.2013 
         350      1.61333 -0.000380359  4.05383e-05     -57.2013 
         350         1.92 -0.000326351  4.43964e-05     -57.2013 
         350      2.25333 -0.000269814  4.71296e-05     -57.2013 
         350      2.61333 -0.000215157  4.84438e-05     -57.2013 
         350            3 -0.000167335  4.82098e-05     -57.2013 
         400            0           -0           -0     -52.8728 
         400     0.013333 -0.000195455  3.40379e-08     -52.8728 
         400     0.053333 -0.000178241  5.27816e-07     -52.8728 
         400         0.12 -0.000198755  2.46761e-06     -52.8728 
         400     0.213332 -0.000253335  6.73308e-06     -52.8728 
         400     0.333332 -0.000311233  1.32434e-05     -52.8728 
         400         0.48 -0.000340703  2.09957e-05     -52.8728 
         400     0.653331 -0.000335253  2.89902e-05     -52.8728 
         400     0.853332 -0.000307938  3.66911e-05     -52.8728 
         400         1.08 -0.000278677  4.35431e-05     -52.8728 
         400      1.33333 -0.000261749  4.88321e-05     -52.8728 
         400      1.61333 -0.000250794  5.24044e-05     -52.8728 
         400         1.92 -0.000233684  5.44719e-05     -52.8728 
         400      2.25333 -0.000213241  5.48661e-05     -52.8728 
         400      2.61333 -0.000192196  5.34798e-05     -52.8728 
         400            3 -0.000171918  5.03706e-05     -52.8728 
         450            0 -2.01364e-19  5.18938e-27     -48.5434 
         450     0.013333 -0.000132182 -7.49376e-08     -48.5434 
         450     0.053333  8.00826e-05 -1.01972e-06     -48.5434 
         450         0.12  0.000364888 -3.90265e-06     -48.5434 
         450     0.213332  0.000633835 -8.19465e-06     -48.5434 
         450     0.333332  0.000801108 -1.14958e-05     -48.5434 
         450         0.48  0.000852113 -1.14193e-05     -48.5434 
         450     0.653331  0.000832689 -7.39136e-06     -48.5434 
         450     0.853332  0.000783925 -7.62953e-07     -48.5434 
         450         1.08  0.000705472  6.19748e-06     -48.5434 
         450      1.33333  0.000586427  1.19332e-05     -48.5434 
         450      1.61333   0.00044211  1.66231e-05     -48.5434 
         450         1.92  0.000286708  2.08293e-05     -48.5434 
         450      2.25333  0.000124589  2.44322e-05     -48.5434 
         450      2.61333 -3.68147e-05  2.71947e-05     -48.5434 
         450            3  -0.00018591  2.88884e-05     -48.5434 
         500            0            0            0     -44.2138 
         500     0.013333 -0.000240607  6.46258e-08     -44.2138 
         500     0.053333 -0.000348213  9.12475e-07     -44.2138 
         500         0.12 -0.000536841  3.74728e-06     -44.2138 
         500     0.213332 -0.000748773  8.85885e-06     -44.2138 
         500     0.333332 -0.000916087  1.50817e-05     -44.2138 
         500         0.48  -0.00100744  2.07484e-05     -44.2138 
         500     0.653331   -0.0010372  2.49901e-05     -44.2138 
         500     0.853332  -0.00102828  2.81925e-05     -44.2138 
         500         1.08 -0.000982191  3.16125e-05     -44.2138 
         500      1.33333  -0.00089176  3.63074e-05     -44.2138 
         500      1.61333 -0.000770474  4.20184e-05     -44.2138 
         500         1.92  -0.00063733  4.77074e-05     -44.2138 
         500      2.25333 -0.000496598  5.25823e-05     -44.2138 
         500      2.61333 -0.000352433  5.62966e-05     -44.2138 
         500            3 -0.000214172  5.86303e-05     -44.2138 
         550            0           -0           -0     -39.8823 
         550     0.013333 -0.000211299 -5.64395e-08     -39.8823 
         550     0.053333 -0.000206615  -8.5385e-07     -39.8823 
         550         0.12  -0.00017171  -3.9039e-06     -39.8823 
         550     0.213332 -8.65179e-05 -1.05964e-05     -39.8823 
         550     0.333332  2.13218e-05 -2.12043e-05     -39.8823 
         550         0.48   0.00010897 -3.48404e-05     -39.8823 
         550     0.653331  0.000154028  -5.0374e-05     -39.8823 
         550     0.853332  0.000157563 -6.72151e-05     -39.8823 
         550         1.08  0.000128174 -8.52041e-05     -39.8823 
         550      1.33333  7.98081e-05 -0.000103834     -39.8823 
         550      1.61333  3.02136e-05 -0.000121911     -39.8823 
         550         1.92 -1.66945e-05 -0.000138065     -39.8823 
         550      2.25333 -6.46728e-05 -0.000151275     -39.8823 
         550      2.61333  -0.00011359 -0.000160542     -39.8823 
         550            3 -0.000160327 -0.000165085     -39.8823 
         600            0           -0           -0     -35.5501 
         600     0.013333 -0.000148671  6.19297e-08     -35.5501 
         600     0.053333 -1.97639e-05   9.9715e-07     -35.5501 
         600         0.12  6.51628e-05  4.95622e-06     -35.5501 
         600     0.213332  4.15607e-05  1.46799e-05     -35.5501 
         600     0.333332 -7.59437e-05  3.18069e-05     -35.5501 
         600         0.48 -0.000212616  5.58062e-05     -35.5501 
         600     0.653331 -0.000304136  8.47508e-05     -35.5501 
         600     0.853332 -0.000332784  0.000116738     -35.5501 
         600         1.08 -0.000317588  0.000150208     -35.5501 
         600      1.33333 -0.000291877  0.000183473     -35.5501 
         600      1.61333 -0.000276757  0.000214757     -35.5501 
         600         1.92 -0.000265247  0.000242674     -35.5501 
         600      2.25333 -0.000251795  0.000265497     -35.5501 
         600      2.61333 -0.000235759  0.000281715     -35.5501 
         600            3 -0.000218181   0.00029007     -35.5501 
         650            0            0            0     -31.2173 
         650     0.013333 -0.000294796  -4.1776e-08     -31.2173 
         650     0.053333 -0.000510468 -7.32842e-07     -31.2173 
         650         0.12 -0.000746535 -4.01565e-06     -31.2173 
         650     0.213332 -0.000874303 -1.29837e-05     -31.2173 
         650     0.333332 -0.000858317 -3.02529e-05     -31.2173 
         650         0.48 -0.000760225 -5.63334e-05     -31.2173 
         650     0.653331 -0.000666627  -8.9845e-05     -31.2173 
         650     0.853332 -0.000624164 -0.000128792     -31.2173 
         650         1.08 -0.000623678 -0.000170876     -31.2173 
         650      1.33333 -0.000615582 -0.000212996     -31.2173 
         650      1.61333 -0.000563748 -0.000252233     -31.2173 
         650         1.92 -0.000487849 -0.000286963     -31.2173 
         650      2.25333 -0.000405319 -0.000315835     -31.2173 
         650      2.61333   -0.0003208 -0.000337125     -31.2173 
         650            3 -0.000236477 -0.000349136     -31.2173 
         700            0            0            0     -26.8836 
         700     0.013333 -0.000167114 -4.88891e-08     -26.8836 
         700     0.053333 -4.74465e-05 -7.07637e-07     -26.8836 
         700         0.12   0.00012784 -3.02759e-06     -26.8836 
         700     0.213332  0.000329357 -7.56319e-06     -26.8836 
         700     0.333332  0.000502606 -1.37234e-05     -26.8836 
         700         0.48  0.000608465 -2.01105e-05     -26.8836 
         700     0.653331  0.000646634  -2.5463e-05     -26.8836 
         700     0.853332  0.000642147 -2.93112e-05     -26.8836 
         700         1.08  0.000613618 -3.20456e-05     -26.8836 
         700      1.33333  0.000557925 -3.46641e-05     -26.8836 
         700      1.61333  0.000467882   -3.804e-05     -26.8836 
         700         1.92  0.000355914 -4.18246e-05     -26.8836 
         700      2.25333  0.000232995 -4.53942e-05     -26.8836 
         700      2.61333  0.000103636 -4.82992e-05     -26.8836 
         700            3 -2.70612e-05  -5.0198e-05     -26.8836 
         750            0           -0           -0     -22.5496 
         750     0.013333 -9.33544e-05  3.89986e-08     -22.5496 
         750     0.053333  0.000187341  7.06489e-07     -22.5496 
         750         0.12  0.000472714  4.02066e-06     -22.5496 
         750     0.213332  0.000623919   1.3473e-05     -22.5496 
         750     0.333332   0.00059552  3.23545e-05     -22.5496 
         750         0.48  0.000457985  6.16195e-05     -22.5496 
         750     0.653331  0.000318844  9.96476e-05     -22.5496 
         750     0.853332  0.000239762  0.000143721     -22.5496 
         750         1.08  0.000213918  0.000190971     -22.5496 
         750      1.33333  0.000193599   0.00023845     -22.5496 
         750      1.61333  0.000145207  0.000283751     -22.5496 
         750         1.92   7.9589e-05  0.000325269     -22.5496 
         750      2.25333  8.45121e-06  0.000361473     -22.5496 
         750      2.61333 -6.45944e-05  0.000390162     -22.5496 
         750            3 -0.000137523  0.000409206     -22.5496 
         800            0            0            0     -18.2151 
         800     0.013333 -0.000273934  7.54428e-08     -18.2151 
         800     0.053333 -0.000472289  1.03916e-06     -18.2151 
         800         0.12 -0.000780645  4.07724e-06     -18.2151 
         800     0.213332  -0.00109831  8.95155e-06     -18.2151 
         800     0.333332  -0.00132374  1.35874e-05     -18.2151 
         800         0.48  -0.00142372  1.56913e-05     -18.2151 
         800     0.653331  -0.00143776  1.45002e-05     -18.2151 
         800     0.853332  -0.00141544  1.10819e-05     -18.2151 
         800         1.08  -0.00136412  7.73131e-06     -18.2151 
         800      1.33333  -0.00125828  6.78292e-06     -18.2151 
         800      1.61333  -0.00109883  8.80525e-06     -18.2151 
         800         1.92 -0.000927988  1.22142e-05     -18.2151 
         800      2.25333 -0.000754928  1.57466e-05     -18.2151 
         800      2.61333 -0.000576678  1.90767e-05     -18.2151 
         800            3 -0.000395116  2.21927e-05     -18.2151 
         850            0           -0           -0     -13.8789 
         850     0.013333 -0.000224536 -5.13329e-08     -13.8789 
         850     0.053333  -0.00025469 -7.89874e-07     -13.8789 
         850         0.12 -0.000262465 -3.70945e-06     -13.8789 
         850     0.213332 -0.000208251 -1.04166e-05     -13.8789 
         850     0.333332 -0.000106853 -2.16368e-05     -13.8789 
         850         0.48 -5.07456e-06 -3.68433e-05     -13.8789 
         850     0.653331  6.07084e-05 -5.48551e-05     -13.8789 
         850     0.853332  8.30189e-05 -7.47154e-05     -13.8789 
         850         1.08  6.96767e-05 -9.60324e-05     -13.8789 
         850      1.33333  3.17294e-05 -0.000118526     -13.8789 
         850      1.61333 -1.34868e-05 -0.000141294     -13.8789 
         850         1.92 -4.85586e-05 -0.000162819     -13.8789 
         850      2.25333 -7.79597e-05 -0.000181669     -13.8789 
         850      2.61333 -0.000107404 -0.000196957     -13.8789 
         850            3 -0.000137982 -0.000207813     -13.8789 
         900            0           -0           -0     -9.54216 
         900     0.013333 -0.000125999 -7.49632e-08     -9.54216 
         900     0.053333  0.000109863 -1.05886e-06     -9.54216 
         900         0.12  0.000445987  -4.3194e-06     -9.54216 
         900     0.213332  0.000795582 -9.96119e-06     -9.54216 
         900     0.333332   0.00104762 -1.59695e-05     -9.54216 
         900         0.48    0.0011485 -1.94979e-05     -9.54216 
         900     0.653331   0.00112887  -1.8999e-05     -9.54216 
         900     0.853332   0.00105169 -1.50231e-05     -9.54216 
         900         1.08  0.000951881 -9.35498e-06     -9.54216 
         900      1.33333  0.000833235 -3.50503e-06     -9.54216 
         900      1.61333  0.000699572  2.12996e-06     -9.54216 
         900         1.92  0.000558989  7.97821e-06     -9.54216 
         900      2.25333  0.000408267  1.38191e-05     -9.54217 
         900      2.61333  0.000246575  1.95042e-05     -9.54217 
         900            3   7.8659e-05  2.48472e-05     -9.54218 
         950            0           -0           -0     -5.20529 
         950     0.013333 -6.85992e-05  8.95197e-08     -5.20529 
         950     0.053333  0.000262342  1.47043e-06     -5.20529 
         950         0.12  0.000571445  7.54162e-06     -5.20529 
         950     0.213332  0.000684491  2.31941e-05     -5.20529 
         950     0.333332  0.000564438  5.23103e-05     -5.20529 
         950         0.48  0.000321649  9.54117e-05     -5.20529 
         950     0.653331  0.000102295  0.000149965     -5.20529 
         950     0.853332 -1.20486e-05  0.000212643     -5.20529 
         950         1.08 -2.23002e-05  0.000280588     -5.20529 
         950      1.33333  1.27425e-05  0.000350666     -5.20529 
         950      1.61333  2.34602e-05  0.000419107     -5.20529 
         950         1.92 -6.65776e-06  0.000482974      -5.2053 
         950      2.25333 -4.95306e-05  0.000540019      -5.2053 
         950      2.61333 -9.16903e-05  0.000587813      -5.2053 
         950            3 -0.000133532  0.000623577      -5.2053 
        1000            0 -2.35122e-19  2.18922e-24    -0.867898 
        1000     0.013333 -0.000232077  1.74624e-07    -0.867898 
        1000     0.053333 -0.000343366  2.50898e-06    -0.867898 
        1000         0.12 -0.000608085  1.09986e-05    -0.867898 
        1000     0.213332 -0.000994393  2.84935e-05    -0.867898 
        1000     0.333332  -0.00139005  5.42906e-05    -0.867898 
        1000         0.48  -0.00168191  8.49632e-05    -0.867898 
        1000     0.653331  -0.00182905  0.000117284    -0.867899 
        1000     0.853332  -0.00185147  0.000150281      -0.8679 
        1000         1.08  -0.00177478  0.000185069      -0.8679 
        1000      1.33333  -0.00161164  0.000222912    -0.867901 
        1000      1.61333  -0.00139481  0.000263047      -0.8679 
        1000         1.92  -0.00117772  0.000302413    -0.867898 
        1000      2.25333 -0.000967398  0.000338019    -0.867894 
        1000      2.61333 -0.000752947  0.000368098    -0.867888 
        1000            3 -0.000531919  0.000391213    -0.867878 
