Variables = x, y, u, v, p

Zone, I=800, F=POINT
         900            0           -0           -0 -1.78257e-05 
         900     0.000234  6.97897e-05  3.31731e-12 -1.78257e-05 
         900     0.000939  0.000280054  5.34176e-11 -1.78256e-05 
         900     0.002113  0.000630196   2.7049e-10 -1.78255e-05 
         900     0.003759   0.00112111  8.56041e-10 -1.78253e-05 
         900     0.005872   0.00175131  2.08891e-09  -1.7825e-05 
         900     0.008457   0.00252228  4.33289e-09 -1.78247e-05 
         900      0.01151   0.00343283  8.02588e-09 -1.78243e-05 
         900     0.015036   0.00448445  1.36963e-08 -1.78239e-05 
         900     0.019031   0.00567595   2.1941e-08 -1.78234e-05 
         900     0.023493   0.00700673  3.34354e-08 -1.78229e-05 
         900     0.028429   0.00847889  4.89606e-08 -1.78223e-05 
         900     0.033831      0.01009  6.93343e-08 -1.78216e-05 
         900     0.039706    0.0118422  9.55046e-08 -1.78209e-05 
         900     0.046047    0.0137334  1.28442e-07 -1.78201e-05 
         900     0.052863    0.0157663  1.69278e-07 -1.78193e-05 
         900      0.06015    0.0179397   2.1916e-07 -1.78184e-05 
         900       0.0679    0.0202511  2.79268e-07 -1.78175e-05 
         900     0.076126    0.0227045  3.51025e-07 -1.78165e-05 
         900     0.084816    0.0252963  4.35731e-07 -1.78155e-05 
         900     0.093982    0.0280301  5.34985e-07 -1.78143e-05 
         900     0.103611    0.0309019  6.50209e-07 -1.78132e-05 
         900     0.113718    0.0339163  7.83227e-07  -1.7812e-05 
         900     0.124286    0.0370682  9.35537e-07 -1.78107e-05 
         900     0.135333    0.0403629   1.1092e-06 -1.78093e-05 
         900      0.14685    0.0437977  1.30598e-06 -1.78079e-05 
         900     0.158827    0.0473697  1.52764e-06 -1.78065e-05 
         900     0.171284    0.0510848   1.7766e-06  -1.7805e-05 
         900     0.184201     0.054937  2.05458e-06 -1.78034e-05 
         900     0.197599    0.0589325  2.36423e-06 -1.78018e-05 
         900     0.211455    0.0630646   2.7073e-06 -1.78001e-05 
         900     0.225792    0.0673399  3.08671e-06 -1.77984e-05 
         900       0.2406    0.0717555  3.50466e-06 -1.77966e-05 
         900     0.255865    0.0763071  3.96325e-06 -1.77947e-05 
         900     0.271613    0.0810025  4.46584e-06 -1.77928e-05 
         900     0.287818    0.0858338  5.01428e-06 -1.77909e-05 
         900     0.304506    0.0908087  5.61218e-06 -1.77889e-05 
         900      0.32165    0.0959191  6.26142e-06 -1.77868e-05 
         900     0.339278     0.101173  6.96593e-06 -1.77847e-05 
         900     0.357377     0.106567  7.72824e-06 -1.77825e-05 
         900      0.37593     0.112096  8.55061e-06 -1.77802e-05 
         900     0.394968     0.117768  9.43754e-06 -1.77779e-05 
         900     0.414461     0.123574  1.03908e-05 -1.77756e-05 
         900      0.43444     0.129524  1.14153e-05 -1.77731e-05 
         900     0.454872     0.135608  1.25125e-05 -1.77707e-05 
         900     0.475791     0.141835  1.36877e-05 -1.77681e-05 
         900     0.497163     0.148195  1.49425e-05 -1.77655e-05 
         900     0.519021     0.154698  1.62823e-05 -1.77629e-05 
         900      0.54135     0.161339  1.77099e-05 -1.77602e-05 
         900     0.564131     0.168111  1.92277e-05 -1.77574e-05 
         900       0.5874     0.175025  2.08417e-05 -1.77546e-05 
         900     0.611121     0.182071  2.25533e-05 -1.77517e-05 
         900      0.63533     0.189257  2.43689e-05 -1.77488e-05 
         900      0.65999     0.196573  2.62895e-05 -1.77458e-05 
         900     0.685139     0.204029  2.83221e-05 -1.77427e-05 
         900     0.710759     0.211619  3.04692e-05 -1.77396e-05 
         900     0.736828     0.219337  3.27329e-05 -1.77364e-05 
         900     0.763387     0.227192  3.51208e-05 -1.77332e-05 
         900     0.790396     0.235174  3.76334e-05 -1.77299e-05 
         900     0.817896     0.243292  4.02785e-05 -1.77265e-05 
         900     0.845843     0.251533   4.3056e-05 -1.77231e-05 
         900     0.874283     0.259909  4.59745e-05 -1.77196e-05 
         900      0.90317     0.268405  4.90336e-05  -1.7716e-05 
         900     0.932551     0.277035  5.22421e-05 -1.77124e-05 
         900     0.962401     0.285789  5.56017e-05 -1.77087e-05 
         900     0.992697     0.294659  5.91135e-05  -1.7705e-05 
         900      1.02349     0.303657  6.27874e-05 -1.77012e-05 
         900      1.05472     0.312768  6.66213e-05 -1.76973e-05 
         900      1.08645     0.322003  7.06253e-05 -1.76933e-05 
         900      1.11863     0.331347  7.47969e-05 -1.76893e-05 
         900       1.1513     0.340812  7.91465e-05 -1.76852e-05 
         900      1.18444     0.350388  8.36746e-05  -1.7681e-05 
         900      1.21802     0.360064  8.83807e-05 -1.76767e-05 
         900      1.25211     0.369855  9.32761e-05 -1.76724e-05 
         900      1.28663     0.379741   9.8356e-05  -1.7668e-05 
         900      1.32165     0.389734  0.000103632 -1.76635e-05 
         900      1.35712     0.399817  0.000109098 -1.76589e-05 
         900      1.39308         0.41  0.000114766 -1.76542e-05 
         900      1.42951     0.420274  0.000120635 -1.76495e-05 
         900      1.46638     0.430626  0.000126701 -1.76446e-05 
         900      1.50375     0.441068  0.000132977 -1.76397e-05 
         900      1.54156     0.451579  0.000139454 -1.76347e-05 
         900      1.57987     0.462171  0.000146144 -1.76295e-05 
         900      1.61863     0.472824  0.000153038 -1.76243e-05 
         900      1.65788     0.483549  0.000160148 -1.76189e-05 
         900      1.69757     0.494324  0.000167463 -1.76135e-05 
         900      1.73776      0.50516  0.000174994 -1.76079e-05 
         900      1.77842     0.516044  0.000182736 -1.76022e-05 
         900      1.81952      0.52696  0.000190681 -1.75964e-05 
         900      1.86113     0.537921  0.000198842 -1.75905e-05 
         900      1.90316     0.548901  0.000207202 -1.75844e-05 
         900      1.94571     0.559912  0.000215775 -1.75782e-05 
         900      1.98869     0.570929  0.000224543 -1.75719e-05 
         900      2.03217     0.581964  0.000233517 -1.75654e-05 
         900      2.07612     0.592999  0.000242687 -1.75587e-05 
         900      2.12051     0.604019   0.00025204  -1.7552e-05 
         900       2.1654     0.615032  0.000261587  -1.7545e-05 
         900      2.21073     0.626014  0.000271306 -1.75379e-05 
         900      2.25656     0.636973  0.000281208 -1.75306e-05 
         900      2.30283     0.647885  0.000291269 -1.75232e-05 
         900       2.3496     0.658757  0.000301498 -1.75156e-05 
         900      2.39685     0.669572  0.000311879 -1.75077e-05 
         900      2.44452     0.680313  0.000322395 -1.74997e-05 
         900      2.49271     0.690988  0.000333053 -1.74915e-05 
         900      2.54132     0.701571  0.000343826 -1.74831e-05 
         900      2.59044      0.71207  0.000354721 -1.74745e-05 
         900         2.64     0.722458  0.000365708 -1.74657e-05 
         900      2.69006     0.732743  0.000376793 -1.74567e-05 
         900      2.74056       0.7429  0.000387946 -1.74474e-05 
         900      2.79156     0.752935  0.000399172 -1.74379e-05 
         900      2.84304     0.762832  0.000410447 -1.74281e-05 
         900      2.89494     0.772573  0.000421749 -1.74182e-05 
         900      2.94735     0.782167  0.000433081  -1.7408e-05 
         900       3.0002     0.791588  0.000444411 -1.73976e-05 
         900      3.05355     0.800843  0.000455739 -1.73869e-05 
         900      3.10733      0.80991  0.000467034 -1.73759e-05 
         900      3.16163     0.818795  0.000478297 -1.73648e-05 
         900      3.21639     0.827484  0.000489501 -1.73533e-05 
         900      3.27158     0.835963  0.000500624 -1.73416e-05 
         900      3.32729     0.844238  0.000511665 -1.73296e-05 
         900      3.38342     0.852291  0.000522591 -1.73173e-05 
         900      3.44007     0.860128  0.000533403 -1.73047e-05 
         900      3.49714     0.867733  0.000544069 -1.72919e-05 
         900      3.55472     0.875111  0.000554589 -1.72788e-05 
         900      3.61273     0.882248  0.000564931 -1.72655e-05 
         900      3.67125     0.889151  0.000575098 -1.72519e-05 
         900      3.73025     0.895812  0.000585065 -1.72381e-05 
         900      3.78967     0.902224  0.000594813 -1.72239e-05 
         900      3.84961     0.908394  0.000604344 -1.72095e-05 
         900      3.90996     0.914313   0.00061363 -1.71948e-05 
         900      3.97084     0.919989  0.000622675 -1.71798e-05 
         900      4.03214     0.925414  0.000631454 -1.71646e-05 
         900      4.09395     0.930598  0.000639971 -1.71491e-05 
         900      4.15624     0.935537   0.00064821 -1.71334e-05 
         900      4.21895     0.940231   0.00065616 -1.71172e-05 
         900      4.28217      0.94469  0.000663824 -1.71009e-05 
         900      4.34582      0.94891  0.000671187 -1.70843e-05 
         900      4.40998     0.952903  0.000678256 -1.70674e-05 
         900      4.47457     0.956666  0.000685018 -1.70503e-05 
         900      4.53968     0.960212   0.00069148 -1.70328e-05 
         900      4.60525     0.963541  0.000697638  -1.7015e-05 
         900      4.67125     0.966659  0.000703487 -1.69971e-05 
         900      4.73777     0.969576  0.000709039  -1.6979e-05 
         900       4.8047     0.972296  0.000714288 -1.69608e-05 
         900      4.87216     0.974829  0.000719245 -1.69423e-05 
         900      4.94003     0.977178  0.000723909 -1.69237e-05 
         900      5.00843     0.979356  0.000728292 -1.69048e-05 
         900      5.07724     0.981367  0.000732395 -1.68858e-05 
         900      5.14658     0.983221  0.000736231 -1.68665e-05 
         900      5.21639     0.984926  0.000739805  -1.6847e-05 
         900      5.28661     0.986487  0.000743124 -1.68274e-05 
         900      5.35736     0.987916  0.000746202 -1.68076e-05 
         900      5.42852     0.989218  0.000749045 -1.67876e-05 
         900      5.50021     0.990403  0.000751667 -1.67674e-05 
         900      5.57231     0.991477  0.000754075 -1.67469e-05 
         900      5.64493     0.992449  0.000756283 -1.67265e-05 
         900      5.71803     0.993326  0.000758302 -1.67057e-05 
         900      5.79154     0.994114  0.000760139 -1.66848e-05 
         900      5.86558      0.99482   0.00076181 -1.66638e-05 
         900      5.94003     0.995452  0.000763321 -1.66427e-05 
         900      6.01501     0.996015  0.000764686 -1.66213e-05 
         900       6.0904     0.996515  0.000765914 -1.65999e-05 
         900      6.16632     0.996958  0.000767017 -1.65782e-05 
         900      6.24271     0.997349  0.000768004 -1.65563e-05 
         900       6.3195     0.997693  0.000768883 -1.65342e-05 
         900      6.39683     0.997996  0.000769664  -1.6512e-05 
         900      6.47457     0.998259  0.000770356 -1.64898e-05 
         900      6.55284      0.99849  0.000770967 -1.64673e-05 
         900      6.63152      0.99869  0.000771505 -1.64448e-05 
         900      6.71073     0.998863  0.000771978 -1.64221e-05 
         900      6.79034     0.999012  0.000772391 -1.63994e-05 
         900      6.87049     0.999141  0.000772751 -1.63764e-05 
         900      6.95111     0.999251  0.000773064 -1.63533e-05 
         900      7.03214     0.999344  0.000773334 -1.63301e-05 
         900       7.1137     0.999424  0.000773568 -1.63067e-05 
         900      7.19566     0.999492  0.000773769 -1.62833e-05 
         900      7.27816     0.999549  0.000773942 -1.62597e-05 
         900      7.36106     0.999597   0.00077409  -1.6236e-05 
         900      7.44451     0.999638  0.000774217 -1.62122e-05 
         900      7.52842     0.999671  0.000774325 -1.61884e-05 
         900      7.61273     0.999699  0.000774416 -1.61644e-05 
         900      7.69758     0.999723  0.000774494 -1.61402e-05 
         900      7.78283     0.999742   0.00077456 -1.61159e-05 
         900      7.86862     0.999758  0.000774616 -1.60915e-05 
         900      7.95481     0.999771  0.000774663 -1.60669e-05 
         900      8.04155     0.999781  0.000774703 -1.60422e-05 
         900      8.12868      0.99979  0.000774737 -1.60173e-05 
         900      8.21635     0.999797  0.000774766 -1.59922e-05 
         900      8.30449     0.999803  0.000774791 -1.59671e-05 
         900      8.39303     0.999808  0.000774813  -1.5942e-05 
         900      8.48211     0.999811  0.000774832 -1.59166e-05 
         900      8.57159     0.999814  0.000774848 -1.58909e-05 
         900      8.66161     0.999817  0.000774862 -1.58651e-05 
         900      8.75203     0.999819  0.000774875 -1.58394e-05 
         900      8.84299      0.99982  0.000774886 -1.58136e-05 
         900      8.93443     0.999822  0.000774897 -1.57876e-05 
         900      9.02626     0.999823  0.000774907 -1.57615e-05 
         900      9.11863     0.999824  0.000774916 -1.57352e-05 
         900      9.21139     0.999824  0.000774925 -1.57087e-05 
         900      9.30471     0.999825  0.000774934 -1.56821e-05 
         900      9.39841     0.999826  0.000774942 -1.56554e-05 
         900      9.49267     0.999826   0.00077495 -1.56286e-05 
         900      9.58739     0.999827  0.000774958 -1.56016e-05 
         900      9.68251     0.999827  0.000774965 -1.55746e-05 
         900      9.77817     0.999827  0.000774973 -1.55474e-05 
         900      9.87422     0.999828   0.00077498 -1.55203e-05 
         900      9.97083     0.999828  0.000774988 -1.54931e-05 
         900      10.0678     0.999828  0.000774995 -1.54658e-05 
         900      10.1654     0.999829  0.000775003 -1.54381e-05 
         900      10.2633     0.999829   0.00077501 -1.54103e-05 
         900      10.3618     0.999829  0.000775018 -1.53824e-05 
         900      10.4607      0.99983  0.000775024 -1.53543e-05 
         900      10.5601      0.99983  0.000775031 -1.53261e-05 
         900        10.66      0.99983  0.000775039 -1.52979e-05 
         900      10.7603      0.99983  0.000775047 -1.52696e-05 
         900      10.8611     0.999831  0.000775055 -1.52411e-05 
         900      10.9623     0.999831  0.000775062 -1.52122e-05 
         900      11.0641     0.999831  0.000775068 -1.51825e-05 
         900      11.1663     0.999832  0.000775078 -1.51536e-05 
         900       11.269     0.999832  0.000775086 -1.51248e-05 
         900      11.3721     0.999832  0.000775093 -1.50961e-05 
         900      11.4757     0.999833    0.0007751 -1.50674e-05 
         900      11.5798     0.999833  0.000775107 -1.50384e-05 
         900      11.6844     0.999833  0.000775114  -1.5009e-05 
         900      11.7894     0.999833  0.000775122 -1.49791e-05 
         900       11.895     0.999834   0.00077513 -1.49488e-05 
         900      12.0009     0.999834  0.000775139 -1.49182e-05 
         900      12.1073     0.999834  0.000775148 -1.48877e-05 
         900      12.2142     0.999835  0.000775156 -1.48576e-05 
         900      12.3216     0.999835  0.000775163  -1.4828e-05 
         900      12.4294     0.999835  0.000775168 -1.47985e-05 
         900      12.5378     0.999836  0.000775177 -1.47675e-05 
         900      12.6465     0.999836   0.00077519 -1.47352e-05 
         900      12.7558     0.999836   0.00077519 -1.47077e-05 
         900      12.8656     0.999837  0.000775199 -1.46763e-05 
         900      12.9757     0.999837   0.00077521 -1.46439e-05 
         900      13.0864     0.999837   0.00077522 -1.46117e-05 
         900      13.1975     0.999838  0.000775228 -1.45804e-05 
         900      13.3092     0.999838  0.000775234 -1.45498e-05 
         900      13.4212     0.999838   0.00077524 -1.45195e-05 
         900      13.5338     0.999838  0.000775246 -1.44891e-05 
         900      13.6468     0.999839  0.000775254 -1.44583e-05 
         900      13.7603     0.999839  0.000775263 -1.44267e-05 
         900      13.8743     0.999839   0.00077527 -1.43943e-05 
         900      13.9886      0.99984  0.000775282  -1.4361e-05 
         900      14.1036      0.99984  0.000775291 -1.43273e-05 
         900      14.2189      0.99984    0.0007753 -1.42937e-05 
         900      14.3348     0.999841  0.000775309 -1.42604e-05 
         900       14.451     0.999841  0.000775317 -1.42277e-05 
         900      14.5678     0.999841  0.000775325 -1.41956e-05 
         900      14.6851     0.999842  0.000775332 -1.41637e-05 
         900      14.8028     0.999842  0.000775339 -1.41316e-05 
         900       14.921     0.999842  0.000775347 -1.40987e-05 
         900      15.0396     0.999843  0.000775356 -1.40648e-05 
         900      15.1588     0.999843  0.000775366 -1.40301e-05 
         900      15.2783     0.999843  0.000775374 -1.39964e-05 
         900      15.3984     0.999844  0.000775377 -1.39652e-05 
         900       15.519     0.999844  0.000775393 -1.39289e-05 
         900        15.64     0.999845  0.000775401  -1.3896e-05 
         900      15.7615     0.999845  0.000775408 -1.38634e-05 
         900      15.8834     0.999845  0.000775415   -1.383e-05 
         900      16.0058     0.999846  0.000775423 -1.37952e-05 
         900      16.1286     0.999846  0.000775432 -1.37594e-05 
         900       16.252     0.999846  0.000775441 -1.37232e-05 
         900      16.3759     0.999847  0.000775451 -1.36874e-05 
         900      16.5002     0.999847  0.000775461 -1.36526e-05 
         900       16.625     0.999847  0.000775471  -1.3619e-05 
         900      16.7501     0.999848  0.000775481 -1.35862e-05 
         900      16.8759     0.999848  0.000775489 -1.35529e-05 
         900       17.002     0.999848   0.00077549 -1.35167e-05 
         900      17.1287     0.999849  0.000775499 -1.34833e-05 
         900      17.2557     0.999849  0.000775505 -1.34483e-05 
         900      17.3834     0.999849  0.000775513 -1.34118e-05 
         900      17.5115      0.99985  0.000775524 -1.33746e-05 
         900      17.6399      0.99985  0.000775537 -1.33377e-05 
         900       17.769     0.999851  0.000775549 -1.33016e-05 
         900      17.8984     0.999851  0.000775555 -1.32667e-05 
         900      18.0284     0.999851  0.000775558 -1.32327e-05 
         900      18.1587     0.999852  0.000775567  -1.3197e-05 
         900      18.2896     0.999852   0.00077558 -1.31598e-05 
         900       18.421     0.999852  0.000775582 -1.31261e-05 
         900      18.5528     0.999853  0.000775593 -1.30892e-05 
         900      18.6851     0.999853  0.000775606 -1.30511e-05 
         900      18.8178     0.999854  0.000775618  -1.3013e-05 
         900      18.9511     0.999854  0.000775627 -1.29752e-05 
         900      19.0847     0.999854  0.000775632 -1.29378e-05 
         900      19.2189     0.999855  0.000775637 -1.29006e-05 
         900      19.3535     0.999855  0.000775642 -1.28634e-05 
         900      19.4886     0.999855  0.000775649  -1.2826e-05 
         900      19.6242     0.999856   0.00077566 -1.27884e-05 
         900      19.7602     0.999856  0.000775673 -1.27506e-05 
         900      19.8968     0.999857  0.000775687 -1.27128e-05 
         900      20.0337     0.999857    0.0007757 -1.26751e-05 
         900      20.1712     0.999857  0.000775711 -1.26374e-05 
         900      20.3091     0.999858  0.000775717 -1.25999e-05 
         900      20.4475     0.999858   0.00077572 -1.25623e-05 
         900      20.5864     0.999858  0.000775721 -1.25242e-05 
         900      20.7257     0.999859  0.000775725 -1.24855e-05 
         900      20.8655     0.999859  0.000775735 -1.24457e-05 
         900      21.0058      0.99986  0.000775755  -1.2405e-05 
         900      21.1465      0.99986  0.000775781 -1.23644e-05 
         900      21.2877      0.99986  0.000775796  -1.2326e-05 
         900      21.4294     0.999861  0.000775769 -1.22889e-05 
         900      21.5716     0.999861  0.000775755 -1.22609e-05 
         900      21.7142     0.999862  0.000775796 -1.22219e-05 
         900      21.8573     0.999862   0.00077581 -1.21796e-05 
         900      22.0008     0.999862  0.000775815 -1.21373e-05 
         900      22.1449     0.999863  0.000775818 -1.20954e-05 
         900      22.2893     0.999863  0.000775824 -1.20541e-05 
         900      22.4344     0.999864  0.000775832 -1.20134e-05 
         900      22.5797     0.999864  0.000775843 -1.19732e-05 
         900      22.7257     0.999864  0.000775855 -1.19334e-05 
         900      22.8721     0.999865  0.000775867 -1.18937e-05 
         900      23.0189     0.999865  0.000775878 -1.18541e-05 
         900      23.1663     0.999866  0.000775888 -1.18142e-05 
         900       23.314     0.999866  0.000775896  -1.1774e-05 
         900      23.4623     0.999867  0.000775903 -1.17335e-05 
         900       23.611     0.999867   0.00077591 -1.16926e-05 
         900      23.7602     0.999867  0.000775917 -1.16515e-05 
         900        23.91     0.999868  0.000775924 -1.16101e-05 
         900        24.06     0.999868  0.000775933 -1.15687e-05 
         900      24.2107     0.999869  0.000775942 -1.15272e-05 
         900      24.3617     0.999869  0.000775952 -1.14859e-05 
         900      24.5133     0.999869  0.000775963 -1.14447e-05 
         900      24.6653      0.99987  0.000775973 -1.14036e-05 
         900      24.8178      0.99987  0.000775982 -1.13626e-05 
         900      24.9708     0.999871  0.000775991 -1.13215e-05 
         900      25.1242     0.999871  0.000775998 -1.12801e-05 
         900      25.2781     0.999871  0.000776005  -1.1238e-05 
         900      25.4324     0.999872  0.000776013 -1.11952e-05 
         900      25.5873     0.999872  0.000776023 -1.11512e-05 
         900      25.7426     0.999873  0.000776036  -1.1106e-05 
         900      25.8984     0.999873  0.000776051 -1.10595e-05 
         900      26.0546     0.999874  0.000776065 -1.10121e-05 
         900      26.2114     0.999874  0.000776065 -1.09667e-05 
         900      26.3686     0.999875  0.000776075 -1.09362e-05 
         900      26.5262     0.999875   0.00077611 -1.09065e-05 
         900      26.6844     0.999875  0.000776085 -1.08507e-05 
         900      26.8429     0.999876  0.000776092 -1.08064e-05 
         900       27.002     0.999876  0.000776107 -1.07664e-05 
         900      27.1615     0.999877   0.00077612 -1.07264e-05 
         900      27.3216     0.999877  0.000776129 -1.06845e-05 
         900      27.4821     0.999878  0.000776135 -1.06403e-05 
         900       27.643     0.999878  0.000776142 -1.05945e-05 
         900      27.8044     0.999879   0.00077615 -1.05479e-05 
         900      27.9663     0.999879  0.000776161 -1.05014e-05 
         900      28.1287     0.999879  0.000776174 -1.04557e-05 
         900      28.2914      0.99988  0.000776188 -1.04114e-05 
         900      28.4548      0.99988  0.000776201 -1.03683e-05 
         900      28.6185     0.999881  0.000776211 -1.03263e-05 
         900      28.7828     0.999881  0.000776219 -1.02846e-05 
         900      28.9475     0.999882  0.000776223 -1.02425e-05 
         900      29.1126     0.999882  0.000776226 -1.01995e-05 
         900      29.2784     0.999883  0.000776229 -1.01549e-05 
         900      29.4444     0.999883  0.000776235 -1.01086e-05 
         900       29.611     0.999883  0.000776245 -1.00606e-05 
         900       29.778     0.999884  0.000776261 -1.00118e-05 
         900      29.9456     0.999884   0.00077628 -9.96292e-06 
         900      30.1137     0.999885    0.0007763  -9.9149e-06 
         900      30.2821     0.999885  0.000776316 -9.86844e-06 
         900      30.4511     0.999886  0.000776323 -9.82308e-06 
         900      30.6204     0.999886  0.000776321  -9.7767e-06 
         900      30.7903     0.999886  0.000776316 -9.73096e-06 
         900      30.9606     0.999887  0.000776301 -9.71042e-06 
         900      31.1315     0.999887  0.000776305 -9.67581e-06 
         900      31.3028     0.999888  0.000776328 -9.62107e-06 
         900      31.4745     0.999888  0.000776373 -9.53591e-06 
         900      31.6468     0.999889  0.000776356 -9.49679e-06 
         900      31.8194     0.999889  0.000776335 -9.47515e-06 
         900      31.9926      0.99989  0.000776344 -9.43353e-06 
         900      32.1662      0.99989  0.000776365 -9.38182e-06 
         900      32.3404     0.999891  0.000776387 -9.32662e-06 
         900      32.5149     0.999891  0.000776405  -9.2722e-06 
         900        32.69     0.999892  0.000776415  -9.2206e-06 
         900      32.8655     0.999892  0.000776421 -9.17251e-06 
         900      33.0414     0.999893  0.000776424 -9.12756e-06 
         900       33.218     0.999893  0.000776427 -9.08462e-06 
         900      33.3948     0.999893  0.000776434 -9.04242e-06 
         900      33.5723     0.999894  0.000776445 -8.99959e-06 
         900        33.75     0.999894   0.00077646 -8.95515e-06 
         900      33.9284     0.999895  0.000776477  -8.9084e-06 
         900      34.1073     0.999896  0.000776494 -8.85929e-06 
         900      34.2865     0.999896  0.000776508 -8.80833e-06 
         900      34.4663     0.999897  0.000776516 -8.75636e-06 
         900      34.6465     0.999897  0.000776519 -8.70474e-06 
         900      34.8272     0.999897  0.000776519 -8.65467e-06 
         900      35.0083     0.999898   0.00077652 -8.60726e-06 
         900        35.19     0.999898  0.000776526 -8.56261e-06 
         900      35.3721     0.999899  0.000776542 -8.51958e-06 
         900      35.5546     0.999899  0.000776564 -8.47488e-06 
         900      35.7377       0.9999  0.000776575  -8.4221e-06 
         900      35.9211       0.9999  0.000776569 -8.36304e-06 
         900      36.1052     0.999901  0.000776598 -8.31749e-06 
         900      36.2895     0.999901  0.000776604 -8.26746e-06 
         900      36.4745     0.999902  0.000776595 -8.21558e-06 
         900      36.6598     0.999902  0.000776581 -8.16371e-06 
         900      36.8457     0.999903  0.000776571 -8.11273e-06 
         900      37.0321     0.999903  0.000776571 -8.06298e-06 
         900      37.2188     0.999904  0.000776587 -8.01429e-06 
         900      37.4062     0.999904  0.000776619 -7.96606e-06 
         900      37.5938     0.999905  0.000776657 -7.91768e-06 
         900      37.7821     0.999905  0.000776682 -7.86839e-06 
         900      37.9707     0.999906  0.000776649 -7.81776e-06 
         900      38.1599     0.999906  0.000776654 -7.76189e-06 
         900      38.3496     0.999907  0.000776685 -7.70633e-06 
         900      38.5396     0.999907  0.000776682  -7.6549e-06 
         900      38.7302     0.999908  0.000776671  -7.6071e-06 
         900      38.9211     0.999908  0.000776664 -7.56192e-06 
         900      39.1127     0.999909   0.00077667  -7.5179e-06 
         900      39.3046     0.999909  0.000776688  -7.4737e-06 
         900      39.4971      0.99991  0.000776713 -7.42806e-06 
         900      39.6899      0.99991   0.00077674 -7.38035e-06 
         900      39.8833     0.999911   0.00077676 -7.33033e-06 
         900      40.0772     0.999911  0.000776769 -7.27855e-06 
         900      40.2714     0.999912  0.000776768 -7.22608e-06 
         900      40.4663     0.999913  0.000776761 -7.17422e-06 
         900      40.6615     0.999913  0.000776756 -7.12438e-06 
         900      40.8573     0.999913  0.000776763 -7.07718e-06 
         900      41.0534     0.999914  0.000776785 -7.03193e-06 
         900      41.2501     0.999914  0.000776808 -6.98531e-06 
         900      41.4473     0.999915  0.000776783 -6.93026e-06 
         900      41.6448     0.999916  0.000776709 -6.86714e-06 
         900      41.8429     0.999916   0.00077681 -6.82356e-06 
         900      42.0414     0.999917  0.000776834 -6.76842e-06 
         900      42.2405     0.999917  0.000776832 -6.70786e-06 
         900      42.4399     0.999918  0.000776829 -6.64632e-06 
         900      42.6399     0.999918  0.000776834 -6.58646e-06 
         900      42.8404     0.999919  0.000776846 -6.52977e-06 
         900      43.0412     0.999919  0.000776862 -6.47666e-06 
         900      43.2426      0.99992  0.000776876 -6.42659e-06 
         900      43.4444      0.99992  0.000776887 -6.37864e-06 
         900      43.6467     0.999921  0.000776893 -6.33136e-06 
         900      43.8494     0.999921  0.000776895 -6.28335e-06 
         900      44.0527     0.999922  0.000776894 -6.23314e-06 
         900      44.2563     0.999922  0.000776894 -6.17979e-06 
         900      44.4606     0.999923  0.000776895 -6.12271e-06 
         900      44.6653     0.999923  0.000776896 -6.06228e-06 
         900      44.8704     0.999924  0.000776897 -5.99992e-06 
         900       45.076     0.999924  0.000776898 -5.93821e-06 
         900       45.282     0.999925  0.000776907 -5.88151e-06 
         900      45.4886     0.999926   0.00077694 -5.83589e-06 
         900      45.6955     0.999926  0.000776954 -5.78203e-06 
         900       45.903     0.999927  0.000776945 -5.72344e-06 
         900      46.1111     0.999927  0.000776951 -5.67076e-06 
         900      46.3194     0.999928  0.000776965 -5.61958e-06 
         900      46.5283     0.999928   0.00077698 -5.56752e-06 
         900      46.7376     0.999929  0.000776991 -5.51382e-06 
         900      46.9475     0.999929  0.000776996  -5.4585e-06 
         900      47.1577      0.99993  0.000776995 -5.40226e-06 
         900      47.3685     0.999931  0.000776991 -5.34578e-06 
         900      47.5798     0.999931  0.000776988 -5.28978e-06 
         900      47.7914     0.999932  0.000776989  -5.2347e-06 
         900      48.0037     0.999932  0.000776997 -5.18052e-06 