Variables = x, y, u, v, p

Zone, I=800, F=POINT
        -100            0  3.35386e-18 -2.08126e-25 -0.000215163 
        -100     0.000234  0.000159371  2.95211e-11 -0.000215163 
        -100     0.000939  0.000639526  5.94912e-10 -0.000215162 
        -100     0.002113    0.0014391  3.12385e-09  -0.00021516 
        -100     0.003759   0.00256014  1.00088e-08 -0.000215158 
        -100     0.005872   0.00399923  2.45585e-08 -0.000215155 
        -100     0.008457   0.00575977  5.10849e-08 -0.000215151 
        -100      0.01151   0.00783906  9.47716e-08 -0.000215147 
        -100     0.015036    0.0102405  1.61865e-07 -0.000215143 
        -100     0.019031    0.0129613  2.59411e-07 -0.000215138 
        -100     0.023493    0.0160002  3.95378e-07 -0.000215132 
        -100     0.028429     0.019362  5.78986e-07 -0.000215125 
        -100     0.033831     0.023041  8.19889e-07 -0.000215117 
        -100     0.039706    0.0270422   1.1293e-06 -0.000215109 
        -100     0.046047    0.0313608  1.51873e-06 -0.000215099 
        -100     0.052863    0.0360028  2.00156e-06  -0.00021509 
        -100      0.06015    0.0409655  2.59137e-06 -0.000215079 
        -100       0.0679    0.0462434  3.30214e-06 -0.000215068 
        -100     0.076126    0.0518454  4.15068e-06 -0.000215056 
        -100     0.084816    0.0577631  5.15234e-06 -0.000215044 
        -100     0.093982    0.0640046  6.32604e-06  -0.00021503 
        -100     0.103611    0.0705611  7.68855e-06 -0.000215016 
        -100     0.113718    0.0774425  9.26141e-06 -0.000215002 
        -100     0.124286    0.0846371  1.10623e-05 -0.000214987 
        -100     0.135333    0.0921569  1.31155e-05 -0.000214971 
        -100      0.14685    0.0999954  1.54418e-05 -0.000214955 
        -100     0.158827     0.108146  1.80619e-05 -0.000214937 
        -100     0.171284      0.11662  2.10041e-05  -0.00021492 
        -100     0.184201     0.125406  2.42887e-05 -0.000214901 
        -100     0.197599     0.134516  2.79466e-05 -0.000214882 
        -100     0.211455     0.143933   3.1998e-05 -0.000214862 
        -100     0.225792     0.153673  3.64769e-05 -0.000214842 
        -100       0.2406     0.163728  4.14088e-05 -0.000214821 
        -100     0.255865     0.174087  4.68172e-05 -0.000214799 
        -100     0.271613     0.184765  5.27411e-05 -0.000214777 
        -100     0.287818     0.195744  5.92006e-05 -0.000214753 
        -100     0.304506     0.207039  6.62369e-05 -0.000214729 
        -100      0.32165      0.21863  7.38698e-05 -0.000214705 
        -100     0.339278     0.230533  8.21433e-05 -0.000214679 
        -100     0.357377     0.242736  9.10839e-05 -0.000214653 
        -100      0.37593     0.255224  0.000100715 -0.000214627 
        -100     0.394968     0.268014  0.000111084 -0.000214599 
        -100     0.414461     0.281082  0.000122208 -0.000214571 
        -100      0.43444     0.294442  0.000134137 -0.000214542 
        -100     0.454872     0.308069  0.000146881 -0.000214512 
        -100     0.475791     0.321978  0.000160495 -0.000214481 
        -100     0.497163     0.336139  0.000174985  -0.00021445 
        -100     0.519021     0.350567  0.000190405 -0.000214418 
        -100      0.54135     0.365244  0.000206771 -0.000214385 
        -100     0.564131     0.380147  0.000224098 -0.000214351 
        -100       0.5874      0.39529  0.000242437 -0.000214316 
        -100     0.611121     0.410638  0.000261782  -0.00021428 
        -100      0.63533     0.426203  0.000282185 -0.000214243 
        -100      0.65999     0.441946  0.000303631 -0.000214206 
        -100     0.685139     0.457878  0.000326169 -0.000214166 
        -100     0.710759     0.473971  0.000349794 -0.000214126 
        -100     0.736828     0.490195  0.000374493 -0.000214085 
        -100     0.763387     0.506557  0.000400308 -0.000214042 
        -100     0.790396     0.523014  0.000427199 -0.000213998 
        -100     0.817896     0.539568  0.000455199 -0.000213953 
        -100     0.845843     0.556173  0.000484251 -0.000213906 
        -100     0.874283     0.572831  0.000514386 -0.000213857 
        -100      0.90317     0.589491  0.000545528 -0.000213807 
        -100     0.932551     0.606155  0.000577699 -0.000213755 
        -100     0.962401     0.622782  0.000610832 -0.000213702 
        -100     0.992697      0.63933  0.000644856 -0.000213646 
        -100      1.02349     0.655797  0.000679772 -0.000213588 
        -100      1.05472     0.672127  0.000715461 -0.000213529 
        -100      1.08645     0.688316  0.000751914 -0.000213467 
        -100      1.11863     0.704306  0.000788994 -0.000213403 
        -100       1.1513     0.720092  0.000826677 -0.000213337 
        -100      1.18444     0.735629  0.000864841 -0.000213268 
        -100      1.21802     0.750873  0.000903355 -0.000213196 
        -100      1.25211     0.765819  0.000942177 -0.000213122 
        -100      1.28663     0.780409  0.000981131 -0.000213045 
        -100      1.32165      0.79464   0.00102016 -0.000212966 
        -100      1.35712     0.808459   0.00105909 -0.000212881 
        -100      1.39308      0.82186   0.00109785 -0.000212795 
        -100      1.42951     0.834808   0.00113628 -0.000212706 
        -100      1.46638     0.847269   0.00117423 -0.000212615 
        -100      1.50375     0.859242   0.00121162 -0.000212521 
        -100      1.54156     0.870689   0.00124828 -0.000212424 
        -100      1.57987     0.881613   0.00128414 -0.000212323 
        -100      1.61863     0.891983   0.00131901 -0.000212218 
        -100      1.65788     0.901807   0.00135286  -0.00021211 
        -100      1.69757     0.911061   0.00138552 -0.000211999 
        -100      1.73776      0.91976   0.00141694 -0.000211884 
        -100      1.77842     0.927895   0.00144702 -0.000211767 
        -100      1.81952     0.935464   0.00147565 -0.000211646 
        -100      1.86113     0.942488   0.00150284 -0.000211523 
        -100      1.90316     0.948965   0.00152847 -0.000211398 
        -100      1.94571      0.95492   0.00155257 -0.000211269 
        -100      1.98869     0.960359   0.00157508 -0.000211138 
        -100      2.03217     0.965312   0.00159602 -0.000211004 
        -100      2.07612     0.969793   0.00161538 -0.000210867 
        -100      2.12051     0.973825   0.00163317 -0.000210728 
        -100       2.1654     0.977438   0.00164945 -0.000210586 
        -100      2.21073     0.980653   0.00166424 -0.000210441 
        -100      2.25656     0.983501   0.00167762 -0.000210293 
        -100      2.30283     0.986007   0.00168963 -0.000210143 
        -100       2.3496     0.988202   0.00170037 -0.000209991 
        -100      2.39685     0.990111    0.0017099 -0.000209837 
        -100      2.44452     0.991759   0.00171829 -0.000209682 
        -100      2.49271     0.993176   0.00172564 -0.000209526 
        -100      2.54132     0.994384   0.00173204 -0.000209369 
        -100      2.59044     0.995409   0.00173757  -0.00020921 
        -100         2.64     0.996271   0.00174231 -0.000209049 
        -100      2.69006     0.996992   0.00174634 -0.000208882 
        -100      2.74056      0.99759   0.00174976 -0.000208705 
        -100      2.79156     0.998083   0.00175263 -0.000208536 
        -100      2.84304     0.998486   0.00175502 -0.000208368 
        -100      2.89494     0.998813   0.00175699 -0.000208197 
        -100      2.94735     0.999076   0.00175861 -0.000208024 
        -100       3.0002     0.999287   0.00175992 -0.000207849 
        -100      3.05355     0.999454   0.00176098 -0.000207672 
        -100      3.10733     0.999585   0.00176183 -0.000207494 
        -100      3.16163     0.999687   0.00176251 -0.000207314 
        -100      3.21639     0.999766   0.00176304 -0.000207132 
        -100      3.27158     0.999827   0.00176345  -0.00020695 
        -100      3.32729     0.999873   0.00176377 -0.000206766 
        -100      3.38342     0.999907   0.00176401 -0.000206581 
        -100      3.44007     0.999933    0.0017642 -0.000206394 
        -100      3.49714     0.999952   0.00176434 -0.000206206 
        -100      3.55472     0.999966   0.00176444 -0.000206016 
        -100      3.61273     0.999976   0.00176452 -0.000205825 
        -100      3.67125     0.999983   0.00176457 -0.000205632 
        -100      3.73025     0.999989   0.00176461 -0.000205438 
        -100      3.78967     0.999992   0.00176464 -0.000205242 
        -100      3.84961     0.999995   0.00176466 -0.000205044 
        -100      3.90996     0.999997   0.00176468 -0.000204845 
        -100      3.97084     0.999998   0.00176469 -0.000204644 
        -100      4.03214     0.999999   0.00176469 -0.000204441 
        -100      4.09395     0.999999    0.0017647 -0.000204237 
        -100      4.15624     0.999999    0.0017647 -0.000204032 
        -100      4.21895            1    0.0017647 -0.000203825 
        -100      4.28217            1    0.0017647 -0.000203617 
        -100      4.34582            1    0.0017647 -0.000203408 
        -100      4.40998            1   0.00176471 -0.000203198 
        -100      4.47457            1   0.00176471 -0.000202986 
        -100      4.53968            1   0.00176471 -0.000202772 
        -100      4.60525            1   0.00176471 -0.000202557 
        -100      4.67125            1   0.00176471 -0.000202341 
        -100      4.73777            1   0.00176471 -0.000202122 
        -100       4.8047            1   0.00176471 -0.000201901 
        -100      4.87216            1   0.00176471 -0.000201677 
        -100      4.94003            1   0.00176471 -0.000201457 
        -100      5.00843            1   0.00176471 -0.000201234 
        -100      5.07724            1   0.00176471 -0.000201008 
        -100      5.14658            1   0.00176471 -0.000200779 
        -100      5.21639            1   0.00176471 -0.000200549 
        -100      5.28661            1   0.00176471 -0.000200317 
        -100      5.35736            1   0.00176471 -0.000200085 
        -100      5.42852            1   0.00176471 -0.000199852 
        -100      5.50021            1   0.00176471 -0.000199618 
        -100      5.57231            1   0.00176471 -0.000199384 
        -100      5.64493            1   0.00176471 -0.000199148 
        -100      5.71803            1   0.00176471  -0.00019891 
        -100      5.79154            1   0.00176471 -0.000198672 
        -100      5.86558            1   0.00176471 -0.000198431 
        -100      5.94003            1   0.00176471 -0.000198188 
        -100      6.01501            1   0.00176471 -0.000197944 
        -100       6.0904            1   0.00176471 -0.000197697 
        -100      6.16632            1   0.00176471 -0.000197449 
        -100      6.24271            1   0.00176471 -0.000197199 
        -100       6.3195            1   0.00176471 -0.000196947 
        -100      6.39683            1   0.00176471 -0.000196693 
        -100      6.47457            1   0.00176471 -0.000196439 
        -100      6.55284            1   0.00176471 -0.000196182 
        -100      6.63152            1   0.00176471 -0.000195925 
        -100      6.71073            1   0.00176471 -0.000195666 
        -100      6.79034            1   0.00176471 -0.000195406 
        -100      6.87049            1   0.00176471 -0.000195144 
        -100      6.95111            1   0.00176471  -0.00019488 
        -100      7.03214            1   0.00176471 -0.000194615 
        -100       7.1137            1   0.00176471 -0.000194347 
        -100      7.19566            1   0.00176471 -0.000194078 
        -100      7.27816            1   0.00176471 -0.000193807 
        -100      7.36106            1   0.00176471 -0.000193535 
        -100      7.44451            1   0.00176471 -0.000193263 
        -100      7.52842            1   0.00176471 -0.000192993 
        -100      7.61273            1   0.00176471 -0.000192726 
        -100      7.69758            1   0.00176471 -0.000192461 
        -100      7.78283            1   0.00176471 -0.000192197 
        -100      7.86862            1   0.00176471 -0.000191932 
        -100      7.95481            1   0.00176471 -0.000191663 
        -100      8.04155            1   0.00176471  -0.00019139 
        -100      8.12868            1   0.00176471 -0.000191113 
        -100      8.21635            1   0.00176471  -0.00019083 
        -100      8.30449            1   0.00176471 -0.000190542 
        -100      8.39303            1   0.00176471 -0.000190251 
        -100      8.48211            1   0.00176471 -0.000189956 
        -100      8.57159            1   0.00176471  -0.00018966 
        -100      8.66161            1   0.00176471 -0.000189361 
        -100      8.75203            1   0.00176471 -0.000189062 
        -100      8.84299            1   0.00176471 -0.000188762 
        -100      8.93443            1   0.00176471 -0.000188463 
        -100      9.02626            1   0.00176471 -0.000188164 
        -100      9.11863            1   0.00176471 -0.000187866 
        -100      9.21139            1   0.00176471 -0.000187569 
        -100      9.30471            1   0.00176471 -0.000187272 
        -100      9.39841            1   0.00176471 -0.000186976 
        -100      9.49267            1   0.00176471 -0.000186679 
        -100      9.58739            1   0.00176471  -0.00018638 
        -100      9.68251            1   0.00176471 -0.000186081 
        -100      9.77817            1   0.00176471 -0.000185779 
        -100      9.87422            1   0.00176471 -0.000185475 
        -100      9.97083            1   0.00176471 -0.000185168 
        -100      10.0678            1   0.00176471 -0.000184857 
        -100      10.1654            1   0.00176471 -0.000184543 
        -100      10.2633            1   0.00176471 -0.000184227 
        -100      10.3618            1   0.00176471 -0.000183907 
        -100      10.4607            1   0.00176471 -0.000183585 
        -100      10.5601            1   0.00176471 -0.000183262 
        -100        10.66            1   0.00176471 -0.000182939 
        -100      10.7603            1   0.00176471 -0.000182616 
        -100      10.8611            1   0.00176471 -0.000182294 
        -100      10.9623            1   0.00176471 -0.000181969 
        -100      11.0641            1   0.00176471 -0.000181645 
        -100      11.1663            1   0.00176471 -0.000181324 
        -100       11.269            1   0.00176471 -0.000181004 
        -100      11.3721            1   0.00176471 -0.000180682 
        -100      11.4757            1   0.00176471 -0.000180356 
        -100      11.5798            1   0.00176471 -0.000180027 
        -100      11.6844            1   0.00176471 -0.000179694 
        -100      11.7894            1   0.00176471 -0.000179357 
        -100       11.895            1   0.00176471 -0.000179017 
        -100      12.0009            1   0.00176471 -0.000178675 
        -100      12.1073            1   0.00176471 -0.000178332 
        -100      12.2142            1   0.00176471 -0.000177989 
        -100      12.3216            1   0.00176471 -0.000177645 
        -100      12.4294            1   0.00176471 -0.000177302 
        -100      12.5378            1   0.00176471 -0.000176959 
        -100      12.6465            1   0.00176471 -0.000176617 
        -100      12.7558            1   0.00176471 -0.000176276 
        -100      12.8656            1   0.00176471 -0.000175935 
        -100      12.9757            1   0.00176471 -0.000175594 
        -100      13.0864            1   0.00176471 -0.000175252 
        -100      13.1975            1   0.00176471 -0.000174909 
        -100      13.3092            1   0.00176471 -0.000174563 
        -100      13.4212            1   0.00176471 -0.000174216 
        -100      13.5338            1   0.00176471 -0.000173865 
        -100      13.6468            1   0.00176471 -0.000173512 
        -100      13.7603            1   0.00176471 -0.000173155 
        -100      13.8743            1   0.00176471 -0.000172795 
        -100      13.9886            1   0.00176471 -0.000172432 
        -100      14.1036            1   0.00176471 -0.000172067 
        -100      14.2189            1   0.00176471   -0.0001717 
        -100      14.3348            1   0.00176471 -0.000171331 
        -100       14.451            1   0.00176471 -0.000170962 
        -100      14.5678            1   0.00176471 -0.000170591 
        -100      14.6851            1   0.00176471 -0.000170217 
        -100      14.8028            1   0.00176471  -0.00016984 
        -100       14.921            1   0.00176471 -0.000169453 
        -100      15.0396            1   0.00176471 -0.000169053 
        -100      15.1588            1   0.00176471 -0.000168675 
        -100      15.2783            1   0.00176471  -0.00016833 
        -100      15.3984            1   0.00176471 -0.000167979 
        -100       15.519            1   0.00176471 -0.000167622 
        -100        15.64            1   0.00176471 -0.000167256 
        -100      15.7615            1   0.00176471 -0.000166883 
        -100      15.8834            1   0.00176471 -0.000166503 
        -100      16.0058            1   0.00176471 -0.000166117 
        -100      16.1286            1   0.00176471 -0.000165726 
        -100       16.252            1   0.00176471 -0.000165333 
        -100      16.3759            1   0.00176471 -0.000164937 
        -100      16.5002            1   0.00176471 -0.000164542 
        -100       16.625            1   0.00176471 -0.000164147 
        -100      16.7501            1   0.00176471 -0.000163753 
        -100      16.8759            1   0.00176471 -0.000163361 
        -100       17.002            1   0.00176471 -0.000162972 
        -100      17.1287            1   0.00176471 -0.000162583 
        -100      17.2557            1   0.00176471 -0.000162197 
        -100      17.3834            1   0.00176471 -0.000161811 
        -100      17.5115            1   0.00176471 -0.000161425 
        -100      17.6399            1   0.00176471 -0.000161039 
        -100       17.769            1   0.00176471  -0.00016065 
        -100      17.8984            1   0.00176471 -0.000160258 
        -100      18.0284            1   0.00176471 -0.000159862 
        -100      18.1587            1   0.00176471 -0.000159462 
        -100      18.2896            1   0.00176471 -0.000159057 
        -100       18.421            1   0.00176471 -0.000158646 
        -100      18.5528            1   0.00176471  -0.00015823 
        -100      18.6851            1   0.00176471  -0.00015781 
        -100      18.8178            1   0.00176471 -0.000157386 
        -100      18.9511            1   0.00176471  -0.00015696 
        -100      19.0847            1   0.00176471 -0.000156533 
        -100      19.2189            1   0.00176471 -0.000156105 
        -100      19.3535            1   0.00176471 -0.000155679 
        -100      19.4886            1   0.00176471 -0.000155256 
        -100      19.6242            1   0.00176471 -0.000154834 
        -100      19.7602            1   0.00176471 -0.000154414 
        -100      19.8968            1   0.00176471 -0.000153993 
        -100      20.0337            1   0.00176471 -0.000153564 
        -100      20.1712            1   0.00176471 -0.000153121 
        -100      20.3091            1   0.00176471  -0.00015265 
        -100      20.4475            1   0.00176471 -0.000152317 
        -100      20.5864            1   0.00176471 -0.000151959 
        -100      20.7257            1   0.00176471 -0.000151565 
        -100      20.8655            1   0.00176471 -0.000151145 
        -100      21.0058            1   0.00176471  -0.00015071 
        -100      21.1465            1   0.00176471 -0.000150265 
        -100      21.2877            1   0.00176471 -0.000149816 
        -100      21.4294            1   0.00176471 -0.000149366 
        -100      21.5716            1   0.00176471 -0.000148918 
        -100      21.7142            1   0.00176471 -0.000148473 
        -100      21.8573            1   0.00176471 -0.000148032 
        -100      22.0008            1   0.00176471 -0.000147594 
        -100      22.1449            1   0.00176471 -0.000147159 
        -100      22.2893            1   0.00176471 -0.000146727 
        -100      22.4344            1   0.00176471 -0.000146295 
        -100      22.5797            1   0.00176471 -0.000145863 
        -100      22.7257            1   0.00176471  -0.00014543 
        -100      22.8721            1   0.00176471 -0.000144994 
        -100      23.0189            1   0.00176471 -0.000144555 
        -100      23.1663            1   0.00176471 -0.000144111 
        -100       23.314            1   0.00176471 -0.000143664 
        -100      23.4623            1   0.00176471 -0.000143212 
        -100       23.611            1   0.00176471 -0.000142756 
        -100      23.7602            1   0.00176471 -0.000142295 
        -100        23.91            1   0.00176471 -0.000141832 
        -100        24.06            1   0.00176471 -0.000141367 
        -100      24.2107            1   0.00176471   -0.0001409 
        -100      24.3617            1   0.00176471 -0.000140433 
        -100      24.5133            1   0.00176471 -0.000139967 
        -100      24.6653            1   0.00176471 -0.000139503 
        -100      24.8178            1   0.00176471 -0.000139043 
        -100      24.9708            1   0.00176471 -0.000138586 
        -100      25.1242            1   0.00176471 -0.000138134 
        -100      25.2781            1   0.00176471 -0.000137686 
        -100      25.4324            1   0.00176471 -0.000137242 
        -100      25.5873            1   0.00176471 -0.000136801 
        -100      25.7426            1   0.00176471 -0.000136362 
        -100      25.8984            1   0.00176471 -0.000135922 
        -100      26.0546            1   0.00176471 -0.000135479 
        -100      26.2114            1   0.00176471 -0.000135028 
        -100      26.3686            1   0.00176471 -0.000134565 
        -100      26.5262            1   0.00176471 -0.000134087 
        -100      26.6844            1   0.00176471 -0.000133585 
        -100      26.8429            1   0.00176471 -0.000133055 
        -100       27.002            1   0.00176471 -0.000132608 
        -100      27.1615            1   0.00176471 -0.000132139 
        -100      27.3216            1   0.00176471 -0.000131642 
        -100      27.4821            1   0.00176471  -0.00013113 
        -100       27.643            1   0.00176471 -0.000130609 
        -100      27.8044            1   0.00176471 -0.000130086 
        -100      27.9663            1   0.00176471 -0.000129564 
        -100      28.1287            1   0.00176471 -0.000129047 
        -100      28.2914            1   0.00176471 -0.000128537 
        -100      28.4548            1   0.00176471 -0.000128033 
        -100      28.6185            1   0.00176471 -0.000127538 
        -100      28.7828            1   0.00176471 -0.000127048 
        -100      28.9475            1   0.00176471 -0.000126565 
        -100      29.1126            1   0.00176471 -0.000126086 
        -100      29.2784            1   0.00176471  -0.00012561 
        -100      29.4444            1   0.00176471 -0.000125136 
        -100       29.611            1   0.00176471 -0.000124661 
        -100       29.778            1   0.00176471 -0.000124186 
        -100      29.9456            1   0.00176471 -0.000123708 
        -100      30.1137            1   0.00176471 -0.000123226 
        -100      30.2821            1   0.00176471  -0.00012274 
        -100      30.4511            1   0.00176471 -0.000122249 
        -100      30.6204            1   0.00176471 -0.000121753 
        -100      30.7903            1   0.00176471 -0.000121252 
        -100      30.9606            1   0.00176471 -0.000120746 
        -100      31.1315            1   0.00176471 -0.000120235 
        -100      31.3028            1   0.00176471 -0.000119721 
        -100      31.4745            1   0.00176471 -0.000119204 
        -100      31.6468            1   0.00176471 -0.000118685 
        -100      31.8194            1   0.00176471 -0.000118164 
        -100      31.9926            1   0.00176471 -0.000117643 
        -100      32.1662            1   0.00176471 -0.000117123 
        -100      32.3404            1   0.00176471 -0.000116603 
        -100      32.5149            1   0.00176471 -0.000116085 
        -100        32.69            1   0.00176471 -0.000115569 
        -100      32.8655            1   0.00176471 -0.000115054 
        -100      33.0414            1   0.00176471 -0.000114542 
        -100       33.218            1   0.00176471  -0.00011403 
        -100      33.3948            1   0.00176471 -0.000113518 
        -100      33.5723            1   0.00176471 -0.000113005 
        -100        33.75            1   0.00176471 -0.000112491 
        -100      33.9284            1   0.00176471 -0.000111972 
        -100      34.1073            1   0.00176471 -0.000111448 
        -100      34.2865            1   0.00176471 -0.000110919 
        -100      34.4663            1   0.00176471 -0.000110382 
        -100      34.6465            1   0.00176471 -0.000109838 
        -100      34.8272            1   0.00176471 -0.000109286 
        -100      35.0083            1   0.00176471  -0.00010873 
        -100        35.19            1   0.00176471 -0.000108261 
        -100      35.3721            1   0.00176471 -0.000107754 
        -100      35.5546            1   0.00176471 -0.000107211 
        -100      35.7377            1   0.00176471 -0.000106645 
        -100      35.9211            1   0.00176471 -0.000106068 
        -100      36.1052            1   0.00176471 -0.000105488 
        -100      36.2895            1   0.00176471  -0.00010491 
        -100      36.4745            1   0.00176471 -0.000104338 
        -100      36.6598            1   0.00176471 -0.000103776 
        -100      36.8457            1   0.00176471 -0.000103222 
        -100      37.0321            1   0.00176471 -0.000102678 
        -100      37.2188            1   0.00176471 -0.000102143 
        -100      37.4062            1   0.00176471 -0.000101615 
        -100      37.5938            1   0.00176471 -0.000101093 
        -100      37.7821            1   0.00176471 -0.000100574 
        -100      37.9707            1   0.00176471 -0.000100056 
        -100      38.1599            1   0.00176471  -9.9537e-05 
        -100      38.3496            1   0.00176471 -9.90154e-05 
        -100      38.5396            1   0.00176471 -9.84898e-05 
        -100      38.7302            1   0.00176471 -9.79583e-05 
        -100      38.9211            1   0.00176471 -9.74206e-05 
        -100      39.1127            1   0.00176471 -9.68753e-05 
        -100      39.3046            1   0.00176471 -9.63231e-05 
        -100      39.4971            1   0.00176471 -9.57632e-05 
        -100      39.6899            1   0.00176471  -9.5197e-05 
        -100      39.8833            1   0.00176471 -9.46243e-05 
        -100      40.0772            1   0.00176471 -9.40464e-05 
        -100      40.2714            1   0.00176471 -9.34651e-05 
        -100      40.4663            1   0.00176471 -9.28805e-05 
        -100      40.6615            1   0.00176471  -9.2295e-05 
        -100      40.8573            1   0.00176471 -9.17087e-05 
        -100      41.0534            1   0.00176471 -9.11238e-05 
        -100      41.2501            1   0.00176471 -9.05402e-05 
        -100      41.4473            1   0.00176471  -8.9959e-05 
        -100      41.6448            1   0.00176471 -8.93811e-05 
        -100      41.8429            1   0.00176471 -8.88056e-05 
        -100      42.0414            1   0.00176471  -8.8233e-05 
        -100      42.2405            1   0.00176471 -8.76619e-05 
        -100      42.4399            1   0.00176471 -8.70921e-05 
        -100      42.6399            1   0.00176471 -8.65215e-05 
        -100      42.8404            1   0.00176471 -8.59491e-05 
        -100      43.0412            1   0.00176471  -8.5374e-05 
        -100      43.2426            1   0.00176471 -8.47939e-05 
        -100      43.4444            1   0.00176471 -8.42089e-05 
        -100      43.6467            1   0.00176471 -8.36177e-05 
        -100      43.8494            1   0.00176471 -8.30222e-05 
        -100      44.0527            1   0.00176471 -8.24236e-05 
        -100      44.2563            1   0.00176471 -8.18269e-05 
        -100      44.4606            1   0.00176471  -8.1238e-05 
        -100      44.6653            1   0.00176471  -8.0667e-05 
        -100      44.8704            1   0.00176471 -8.01282e-05 
        -100       45.076            1   0.00176471 -7.96393e-05 
        -100       45.282            1   0.00176471 -7.91884e-05 
        -100      45.4886            1   0.00176471 -7.86128e-05 
        -100      45.6955            1   0.00176471 -7.80239e-05 
        -100       45.903            1   0.00176471 -7.74227e-05 
        -100      46.1111            1   0.00176471 -7.68118e-05 
        -100      46.3194            1   0.00176471 -7.61938e-05 
        -100      46.5283            1   0.00176471 -7.55698e-05 
        -100      46.7376            1   0.00176471 -7.49424e-05 
        -100      46.9475            1   0.00176471 -7.43125e-05 
        -100      47.1577            1   0.00176471 -7.36825e-05 
        -100      47.3685            1   0.00176471 -7.30529e-05 
        -100      47.5798            1   0.00176471 -7.24252e-05 
        -100      47.7914            1   0.00176471 -7.18009e-05 
        -100      48.0037            1   0.00176471 -7.11796e-05 