Variables = x, y, u, v, p

Zone, I=800, F=POINT
         300            0            0            0 -6.10171e-05 
         300     0.000234  9.72152e-05  8.90957e-12  -6.1017e-05 
         300     0.000939  0.000390107  1.43468e-10 -6.10168e-05 
         300     0.002113  0.000877845  7.26481e-10 -6.10164e-05 
         300     0.003759   0.00156168  2.29917e-09 -6.10159e-05 
         300     0.005872   0.00243952  5.61046e-09 -6.10152e-05 
         300     0.008457   0.00351346  1.16375e-08 -6.10144e-05 
         300      0.01151   0.00478184  2.15565e-08 -6.10134e-05 
         300     0.015036   0.00624672  3.67869e-08 -6.10122e-05 
         300     0.019031   0.00790645  5.89323e-08 -6.10109e-05 
         300     0.023493    0.0097602  8.98066e-08 -6.10095e-05 
         300     0.028429    0.0118109  1.31509e-07 -6.10079e-05 
         300     0.033831    0.0140552  1.86236e-07 -6.10061e-05 
         300     0.039706    0.0164959  2.56536e-07 -6.10042e-05 
         300     0.046047    0.0191303  3.45016e-07 -6.10021e-05 
         300     0.052863    0.0219621  4.54718e-07 -6.09999e-05 
         300      0.06015    0.0249895  5.88723e-07 -6.09975e-05 
         300       0.0679    0.0282093  7.50206e-07  -6.0995e-05 
         300     0.076126    0.0316268  9.42992e-07 -6.09923e-05 
         300     0.084816     0.035237  1.17057e-06 -6.09895e-05 
         300     0.093982     0.039045  1.43725e-06 -6.09865e-05 
         300     0.103611    0.0430453  1.74685e-06 -6.09834e-05 
         300     0.113718    0.0472441  2.10427e-06 -6.09801e-05 
         300     0.124286    0.0516344  2.51354e-06 -6.09767e-05 
         300     0.135333    0.0562236  2.98021e-06 -6.09731e-05 
         300      0.14685    0.0610078    3.509e-06 -6.09693e-05 
         300     0.158827     0.065983  4.10469e-06 -6.09654e-05 
         300     0.171284    0.0711573  4.77374e-06 -6.09614e-05 
         300     0.184201    0.0765223  5.52079e-06 -6.09572e-05 
         300     0.197599    0.0820868  6.35297e-06 -6.09528e-05 
         300     0.211455    0.0878411  7.27496e-06 -6.09483e-05 
         300     0.225792    0.0937945  8.29462e-06 -6.09436e-05 
         300       0.2406    0.0999427  9.41785e-06 -6.09388e-05 
         300     0.255865      0.10628  1.06503e-05 -6.09338e-05 
         300     0.271613     0.112817  1.20009e-05 -6.09287e-05 
         300     0.287818     0.119542  1.34746e-05 -6.09234e-05 
         300     0.304506     0.126466  1.50812e-05 -6.09179e-05 
         300      0.32165     0.133577  1.68255e-05 -6.09123e-05 
         300     0.339278     0.140887  1.87181e-05 -6.09066e-05 
         300     0.357377      0.14839  2.07657e-05 -6.09006e-05 
         300      0.37593     0.156078  2.29743e-05 -6.08946e-05 
         300     0.394968     0.163964  2.53558e-05 -6.08883e-05 
         300     0.414461     0.172035   2.7915e-05 -6.08819e-05 
         300      0.43444     0.180302  3.06643e-05 -6.08754e-05 
         300     0.454872     0.188751   3.3608e-05 -6.08687e-05 
         300     0.475791     0.197396    3.676e-05 -6.08618e-05 
         300     0.497163     0.206222  4.01239e-05 -6.08547e-05 
         300     0.519021      0.21524  4.37142e-05 -6.08475e-05 
         300      0.54135     0.224443  4.75377e-05 -6.08401e-05 
         300     0.564131     0.233823  5.16002e-05 -6.08325e-05 
         300       0.5874     0.243393  5.59176e-05 -6.08248e-05 
         300     0.611121     0.253135  6.04924e-05 -6.08169e-05 
         300      0.63533     0.263064  6.53412e-05 -6.08088e-05 
         300      0.65999     0.273162  7.04658e-05 -6.08005e-05 
         300     0.685139     0.283441  7.58835e-05 -6.07921e-05 
         300     0.710759     0.293894  8.16001e-05 -6.07834e-05 
         300     0.736828     0.304506  8.76196e-05 -6.07746e-05 
         300     0.763387     0.315294  9.39606e-05 -6.07655e-05 
         300     0.790396     0.326236  0.000100623 -6.07563e-05 
         300     0.817896     0.337347  0.000107624 -6.07468e-05 
         300     0.845843     0.348604  0.000114963 -6.07372e-05 
         300     0.874283     0.360023   0.00012266 -6.07273e-05 
         300      0.90317      0.37158  0.000130709 -6.07172e-05 
         300     0.932551     0.383289  0.000139132 -6.07068e-05 
         300     0.962401     0.395136  0.000147929 -6.06962e-05 
         300     0.992697     0.407106    0.0001571 -6.06853e-05 
         300      1.02349     0.419213  0.000166665 -6.06742e-05 
         300      1.05472     0.431429  0.000176615 -6.06629e-05 
         300      1.08645      0.44377   0.00018697 -6.06512e-05 
         300      1.11863     0.456208  0.000197718 -6.06392e-05 
         300       1.1513     0.468754  0.000208879  -6.0627e-05 
         300      1.18444     0.481392  0.000220448 -6.06144e-05 
         300      1.21802     0.494103  0.000232416 -6.06015e-05 
         300      1.25211     0.506898  0.000244803 -6.05883e-05 
         300      1.28663     0.519747  0.000257587 -6.05747e-05 
         300      1.32165     0.532662   0.00027079 -6.05608e-05 
         300      1.35712     0.545611  0.000284384 -6.05464e-05 
         300      1.39308     0.558603  0.000298389 -6.05317e-05 
         300      1.42951     0.571618  0.000312788 -6.05165e-05 
         300      1.46638     0.584634  0.000327561 -6.05009e-05 
         300      1.50375     0.597658  0.000342723 -6.04849e-05 
         300      1.54156     0.610658   0.00035824 -6.04684e-05 
         300      1.57987      0.62364  0.000374124 -6.04514e-05 
         300      1.61863     0.636572  0.000390337 -6.04339e-05 
         300      1.65788      0.64946  0.000406889 -6.04159e-05 
         300      1.69757     0.662269  0.000423737 -6.03973e-05 
         300      1.73776     0.675004  0.000440887 -6.03782e-05 
         300      1.77842     0.687643  0.000458307 -6.03585e-05 
         300      1.81952     0.700158  0.000475959 -6.03382e-05 
         300      1.86113     0.712556  0.000493847 -6.03173e-05 
         300      1.90316     0.724802  0.000511917 -6.02957e-05 
         300      1.94571     0.736899   0.00053017 -6.02735e-05 
         300      1.98869     0.748814  0.000548548 -6.02506e-05 
         300      2.03217     0.760551  0.000567048  -6.0227e-05 
         300      2.07612     0.772085  0.000585625 -6.02027e-05 
         300      2.12051     0.783394   0.00060423 -6.01776e-05 
         300       2.1654      0.79448  0.000622858 -6.01518e-05 
         300      2.21073     0.805313  0.000641444 -6.01253e-05 
         300      2.25656     0.815896  0.000659981  -6.0098e-05 
         300      2.30283     0.826202  0.000678403 -6.00699e-05 
         300       2.3496     0.836234  0.000696701  -6.0041e-05 
         300      2.39685     0.845973  0.000714825 -6.00113e-05 
         300      2.44452     0.855401  0.000732722 -5.99808e-05 
         300      2.49271     0.864524  0.000750383 -5.99495e-05 
         300      2.54132     0.873321  0.000767746 -5.99174e-05 
         300      2.59044     0.881797  0.000784801 -5.98844e-05 
         300         2.64     0.889934  0.000801489 -5.98506e-05 
         300      2.69006     0.897739  0.000817802  -5.9816e-05 
         300      2.74056     0.905197  0.000833683 -5.97806e-05 
         300      2.79156     0.912317  0.000849129 -5.97443e-05 
         300      2.84304     0.919092  0.000864101 -5.97072e-05 
         300      2.89494     0.925519  0.000878561 -5.96693e-05 
         300      2.94735     0.931608  0.000892512 -5.96306e-05 
         300       3.0002     0.937353  0.000905913 -5.95912e-05 
         300      3.05355     0.942767  0.000918767 -5.95509e-05 
         300      3.10733     0.947848  0.000931042   -5.951e-05 
         300      3.16163     0.952608  0.000942748 -5.94682e-05 
         300      3.21639     0.957053  0.000953867 -5.94257e-05 
         300      3.27158     0.961187  0.000964387 -5.93826e-05 
         300      3.32729     0.965026  0.000974325 -5.93386e-05 
         300      3.38342     0.968575  0.000983668 -5.92941e-05 
         300      3.44007      0.97185  0.000992435 -5.92488e-05 
         300      3.49714     0.974858   0.00100062 -5.92029e-05 
         300      3.55472     0.977615   0.00100825 -5.91563e-05 
         300      3.61273     0.980131   0.00101533 -5.91092e-05 
         300      3.67125     0.982422   0.00102188 -5.90614e-05 
         300      3.73025     0.984499   0.00102791  -5.9013e-05 
         300      3.78967     0.986373   0.00103344 -5.89641e-05 
         300      3.84961     0.988062   0.00103851 -5.89146e-05 
         300      3.90996     0.989574   0.00104312 -5.88646e-05 
         300      3.97084     0.990927    0.0010473  -5.8814e-05 
         300      4.03214     0.992129   0.00105108 -5.87628e-05 
         300      4.09395     0.993196   0.00105449 -5.87112e-05 
         300      4.15624     0.994138   0.00105754  -5.8659e-05 
         300      4.21895     0.994965   0.00106027 -5.86063e-05 
         300      4.28217     0.995689   0.00106269 -5.85532e-05 
         300      4.34582     0.996321   0.00106484 -5.84996e-05 
         300      4.40998     0.996869   0.00106673 -5.84455e-05 
         300      4.47457     0.997343   0.00106839  -5.8391e-05 
         300      4.53968     0.997751   0.00106984 -5.83361e-05 
         300      4.60525       0.9981    0.0010711 -5.82807e-05 
         300      4.67125     0.998398   0.00107219 -5.82248e-05 
         300      4.73777     0.998651   0.00107313 -5.81686e-05 
         300       4.8047     0.998864   0.00107394 -5.81119e-05 
         300      4.87216     0.999044   0.00107463 -5.80547e-05 
         300      4.94003     0.999194   0.00107522 -5.79972e-05 
         300      5.00843     0.999319   0.00107571 -5.79392e-05 
         300      5.07724     0.999423   0.00107613 -5.78809e-05 
         300      5.14658     0.999508   0.00107649 -5.78221e-05 
         300      5.21639     0.999578   0.00107678 -5.77629e-05 
         300      5.28661     0.999636   0.00107702 -5.77034e-05 
         300      5.35736     0.999682   0.00107723 -5.76434e-05 
         300      5.42852     0.999719    0.0010774  -5.7583e-05 
         300      5.50021      0.99975   0.00107753 -5.75221e-05 
         300      5.57231     0.999774   0.00107765 -5.74609e-05 
         300      5.64493     0.999793   0.00107774 -5.73993e-05 
         300      5.71803     0.999808   0.00107782 -5.73372e-05 
         300      5.79154      0.99982   0.00107788 -5.72748e-05 
         300      5.86558     0.999829   0.00107794  -5.7212e-05 
         300      5.94003     0.999836   0.00107798 -5.71488e-05 
         300      6.01501     0.999842   0.00107802 -5.70851e-05 
         300       6.0904     0.999846   0.00107805 -5.70211e-05 
         300      6.16632      0.99985   0.00107807 -5.69567e-05 
         300      6.24271     0.999852   0.00107809 -5.68919e-05 
         300       6.3195     0.999854   0.00107811 -5.68267e-05 
         300      6.39683     0.999856   0.00107813  -5.6761e-05 
         300      6.47457     0.999857   0.00107815  -5.6695e-05 
         300      6.55284     0.999858   0.00107816 -5.66285e-05 
         300      6.63152     0.999858   0.00107818 -5.65617e-05 
         300      6.71073     0.999859   0.00107819 -5.64947e-05 
         300      6.79034      0.99986   0.00107821 -5.64271e-05 
         300      6.87049      0.99986   0.00107822 -5.63589e-05 
         300      6.95111      0.99986   0.00107823 -5.62903e-05 
         300      7.03214     0.999861   0.00107824 -5.62213e-05 
         300       7.1137     0.999861   0.00107825 -5.61519e-05 
         300      7.19566     0.999861   0.00107827 -5.60822e-05 
         300      7.27816     0.999861   0.00107828  -5.6012e-05 
         300      7.36106     0.999862   0.00107829 -5.59417e-05 
         300      7.44451     0.999862    0.0010783 -5.58708e-05 
         300      7.52842     0.999862   0.00107831 -5.57995e-05 
         300      7.61273     0.999862   0.00107833 -5.57278e-05 
         300      7.69758     0.999862   0.00107834 -5.56557e-05 
         300      7.78283     0.999863   0.00107835 -5.55832e-05 
         300      7.86862     0.999863   0.00107836 -5.55102e-05 
         300      7.95481     0.999863   0.00107838 -5.54368e-05 
         300      8.04155     0.999863   0.00107839 -5.53631e-05 
         300      8.12868     0.999863    0.0010784  -5.5289e-05 
         300      8.21635     0.999864   0.00107841 -5.52144e-05 
         300      8.30449     0.999864   0.00107842 -5.51394e-05 
         300      8.39303     0.999864   0.00107844 -5.50641e-05 
         300      8.48211     0.999864   0.00107845 -5.49884e-05 
         300      8.57159     0.999864   0.00107846 -5.49123e-05 
         300      8.66161     0.999865   0.00107847 -5.48356e-05 
         300      8.75203     0.999865   0.00107849 -5.47587e-05 
         300      8.84299     0.999865    0.0010785 -5.46813e-05 
         300      8.93443     0.999865   0.00107851 -5.46036e-05 
         300      9.02626     0.999866   0.00107853 -5.45255e-05 
         300      9.11863     0.999866   0.00107854  -5.4447e-05 
         300      9.21139     0.999866   0.00107855  -5.4368e-05 
         300      9.30471     0.999866   0.00107856 -5.42886e-05 
         300      9.39841     0.999866   0.00107858 -5.42089e-05 
         300      9.49267     0.999867   0.00107859 -5.41287e-05 
         300      9.58739     0.999867    0.0010786 -5.40481e-05 
         300      9.68251     0.999867   0.00107862 -5.39671e-05 
         300      9.77817     0.999867   0.00107863 -5.38857e-05 
         300      9.87422     0.999868   0.00107864  -5.3804e-05 
         300      9.97083     0.999868   0.00107866 -5.37217e-05 
         300      10.0678     0.999868   0.00107867 -5.36392e-05 
         300      10.1654     0.999868   0.00107868 -5.35561e-05 
         300      10.2633     0.999868    0.0010787 -5.34727e-05 
         300      10.3618     0.999869   0.00107871 -5.33889e-05 
         300      10.4607     0.999869   0.00107872 -5.33047e-05 
         300      10.5601     0.999869   0.00107874 -5.32201e-05 
         300        10.66     0.999869   0.00107875 -5.31349e-05 
         300      10.7603      0.99987   0.00107877 -5.30495e-05 
         300      10.8611      0.99987   0.00107878 -5.29636e-05 
         300      10.9623      0.99987   0.00107879 -5.28774e-05 
         300      11.0641      0.99987   0.00107881 -5.27907e-05 
         300      11.1663     0.999871   0.00107882 -5.27037e-05 
         300       11.269     0.999871   0.00107883 -5.26164e-05 
         300      11.3721     0.999871   0.00107885 -5.25285e-05 
         300      11.4757     0.999871   0.00107886 -5.24403e-05 
         300      11.5798     0.999872   0.00107888 -5.23513e-05 
         300      11.6844     0.999872   0.00107889  -5.2262e-05 
         300      11.7894     0.999872    0.0010789 -5.21725e-05 
         300       11.895     0.999872   0.00107892 -5.20826e-05 
         300      12.0009     0.999873   0.00107893 -5.19924e-05 
         300      12.1073     0.999873   0.00107895 -5.19017e-05 
         300      12.2142     0.999873   0.00107896 -5.18106e-05 
         300      12.3216     0.999873   0.00107897  -5.1719e-05 
         300      12.4294     0.999874   0.00107899 -5.16271e-05 
         300      12.5378     0.999874     0.001079 -5.15347e-05 
         300      12.6465     0.999874   0.00107902  -5.1442e-05 
         300      12.7558     0.999874   0.00107903 -5.13489e-05 
         300      12.8656     0.999875   0.00107905 -5.12554e-05 
         300      12.9757     0.999875   0.00107906 -5.11614e-05 
         300      13.0864     0.999875   0.00107907 -5.10672e-05 
         300      13.1975     0.999875   0.00107909 -5.09725e-05 
         300      13.3092     0.999876    0.0010791 -5.08774e-05 
         300      13.4212     0.999876   0.00107912 -5.07819e-05 
         300      13.5338     0.999876   0.00107913 -5.06859e-05 
         300      13.6468     0.999876   0.00107915 -5.05894e-05 
         300      13.7603     0.999877   0.00107916 -5.04926e-05 
         300      13.8743     0.999877   0.00107918 -5.03954e-05 
         300      13.9886     0.999877   0.00107919 -5.02978e-05 
         300      14.1036     0.999877   0.00107921 -5.01997e-05 
         300      14.2189     0.999878   0.00107922 -5.01015e-05 
         300      14.3348     0.999878   0.00107924 -5.00027e-05 
         300       14.451     0.999878   0.00107925 -4.99036e-05 
         300      14.5678     0.999878   0.00107927 -4.98035e-05 
         300      14.6851     0.999879   0.00107928 -4.97027e-05 
         300      14.8028     0.999879    0.0010793 -4.96018e-05 
         300       14.921     0.999879   0.00107931 -4.95008e-05 
         300      15.0396      0.99988   0.00107933 -4.93996e-05 
         300      15.1588      0.99988   0.00107934 -4.92981e-05 
         300      15.2783      0.99988   0.00107936 -4.91963e-05 
         300      15.3984      0.99988   0.00107937 -4.90936e-05 
         300       15.519     0.999881   0.00107939 -4.89908e-05 
         300        15.64     0.999881    0.0010794 -4.88878e-05 
         300      15.7615     0.999881   0.00107942 -4.87837e-05 
         300      15.8834     0.999881   0.00107943 -4.86794e-05 
         300      16.0058     0.999882   0.00107945 -4.85747e-05 
         300      16.1286     0.999882   0.00107946 -4.84699e-05 
         300       16.252     0.999882   0.00107948 -4.83646e-05 
         300      16.3759     0.999883   0.00107949  -4.8259e-05 
         300      16.5002     0.999883   0.00107951  -4.8153e-05 
         300       16.625     0.999883   0.00107952 -4.80463e-05 
         300      16.7501     0.999883   0.00107954 -4.79393e-05 
         300      16.8759     0.999884   0.00107956 -4.78317e-05 
         300       17.002     0.999884   0.00107957 -4.77238e-05 
         300      17.1287     0.999884   0.00107959 -4.76154e-05 
         300      17.2557     0.999885    0.0010796 -4.75069e-05 
         300      17.3834     0.999885   0.00107962 -4.73979e-05 
         300      17.5115     0.999885   0.00107963 -4.72886e-05 
         300      17.6399     0.999885   0.00107965 -4.71789e-05 
         300       17.769     0.999886   0.00107966 -4.70684e-05 
         300      17.8984     0.999886   0.00107968 -4.69572e-05 
         300      18.0284     0.999886    0.0010797 -4.68444e-05 
         300      18.1587     0.999887   0.00107971 -4.67328e-05 
         300      18.2896     0.999887   0.00107972 -4.66224e-05 
         300       18.421     0.999887   0.00107974 -4.65091e-05 
         300      18.5528     0.999887   0.00107976 -4.63966e-05 
         300      18.6851     0.999888   0.00107977 -4.62838e-05 
         300      18.8178     0.999888   0.00107979 -4.61706e-05 
         300      18.9511     0.999888   0.00107981 -4.60566e-05 
         300      19.0847     0.999889   0.00107982 -4.59422e-05 
         300      19.2189     0.999889   0.00107984 -4.58272e-05 
         300      19.3535     0.999889   0.00107985  -4.5712e-05 
         300      19.4886      0.99989   0.00107987 -4.55963e-05 
         300      19.6242      0.99989   0.00107989 -4.54804e-05 
         300      19.7602      0.99989    0.0010799 -4.53642e-05 
         300      19.8968      0.99989   0.00107992 -4.52474e-05 
         300      20.0337     0.999891   0.00107993 -4.51303e-05 
         300      20.1712     0.999891   0.00107995 -4.50125e-05 
         300      20.3091     0.999891   0.00107997 -4.48942e-05 
         300      20.4475     0.999892   0.00107998 -4.47754e-05 
         300      20.5864     0.999892      0.00108 -4.46564e-05 
         300      20.7257     0.999892   0.00108001 -4.45372e-05 
         300      20.8655     0.999893   0.00108003 -4.44179e-05 
         300      21.0058     0.999893   0.00108005 -4.42983e-05 
         300      21.1465     0.999893   0.00108006 -4.41776e-05 
         300      21.2877     0.999894   0.00108008 -4.40544e-05 
         300      21.4294     0.999894   0.00108009 -4.39362e-05 
         300      21.5716     0.999894   0.00108011 -4.38143e-05 
         300      21.7142     0.999895   0.00108013 -4.36915e-05 
         300      21.8573     0.999895   0.00108014 -4.35682e-05 
         300      22.0008     0.999895   0.00108016 -4.34448e-05 
         300      22.1449     0.999895   0.00108018 -4.33211e-05 
         300      22.2893     0.999896   0.00108019 -4.31973e-05 
         300      22.4344     0.999896   0.00108021  -4.3073e-05 
         300      22.5797     0.999896   0.00108022 -4.29484e-05 
         300      22.7257     0.999897   0.00108024 -4.28232e-05 
         300      22.8721     0.999897   0.00108025 -4.26976e-05 
         300      23.0189     0.999897   0.00108027 -4.25716e-05 
         300      23.1663     0.999898   0.00108029 -4.24452e-05 
         300       23.314     0.999898   0.00108031 -4.23186e-05 
         300      23.4623     0.999898   0.00108032 -4.21915e-05 
         300       23.611     0.999899   0.00108034 -4.20641e-05 
         300      23.7602     0.999899   0.00108035 -4.19361e-05 
         300        23.91     0.999899   0.00108037 -4.18075e-05 
         300        24.06       0.9999   0.00108039 -4.16784e-05 
         300      24.2107       0.9999    0.0010804 -4.15489e-05 
         300      24.3617       0.9999   0.00108042 -4.14196e-05 
         300      24.5133     0.999901   0.00108043 -4.12897e-05 
         300      24.6653     0.999901   0.00108045 -4.11592e-05 
         300      24.8178     0.999901   0.00108047 -4.10292e-05 
         300      24.9708     0.999902   0.00108048 -4.08986e-05 
         300      25.1242     0.999902    0.0010805 -4.07667e-05 
         300      25.2781     0.999902   0.00108051 -4.06337e-05 
         300      25.4324     0.999903   0.00108053 -4.05001e-05 
         300      25.5873     0.999903   0.00108055 -4.03663e-05 
         300      25.7426     0.999903   0.00108057 -4.02326e-05 
         300      25.8984     0.999904   0.00108058  -4.0099e-05 
         300      26.0546     0.999904    0.0010806 -3.99653e-05 
         300      26.2114     0.999904   0.00108061 -3.98313e-05 
         300      26.3686     0.999905   0.00108063 -3.96967e-05 
         300      26.5262     0.999905   0.00108064 -3.95614e-05 
         300      26.6844     0.999905   0.00108066 -3.94253e-05 
         300      26.8429     0.999906   0.00108068 -3.92886e-05 
         300       27.002     0.999906    0.0010807 -3.91514e-05 
         300      27.1615     0.999906   0.00108071 -3.90142e-05 
         300      27.3216     0.999907   0.00108073  -3.8877e-05 
         300      27.4821     0.999907   0.00108074 -3.87397e-05 
         300       27.643     0.999907   0.00108076 -3.86015e-05 
         300      27.8044     0.999908   0.00108078 -3.84604e-05 
         300      27.9663     0.999908   0.00108079 -3.83237e-05 
         300      28.1287     0.999908   0.00108081 -3.81838e-05 
         300      28.2914     0.999909   0.00108082 -3.80431e-05 
         300      28.4548     0.999909   0.00108084  -3.7902e-05 
         300      28.6185     0.999909   0.00108085 -3.77593e-05 
         300      28.7828      0.99991   0.00108087 -3.76183e-05 
         300      28.9475      0.99991   0.00108089  -3.7477e-05 
         300      29.1126      0.99991   0.00108091 -3.73356e-05 
         300      29.2784     0.999911   0.00108092 -3.71937e-05 
         300      29.4444     0.999911   0.00108093 -3.70514e-05 
         300       29.611     0.999912   0.00108095 -3.69082e-05 
         300       29.778     0.999912   0.00108097 -3.67644e-05 
         300      29.9456     0.999912   0.00108099 -3.66198e-05 
         300      30.1137     0.999913     0.001081 -3.64749e-05 
         300      30.2821     0.999913   0.00108102   -3.633e-05 
         300      30.4511     0.999913   0.00108103 -3.61849e-05 
         300      30.6204     0.999914   0.00108105 -3.60398e-05 
         300      30.7903     0.999914   0.00108106 -3.58941e-05 
         300      30.9606     0.999914   0.00108108 -3.57477e-05 
         300      31.1315     0.999915    0.0010811 -3.56002e-05 
         300      31.3028     0.999915   0.00108112 -3.54522e-05 
         300      31.4745     0.999915   0.00108113  -3.5306e-05 
         300      31.6468     0.999916   0.00108114 -3.51558e-05 
         300      31.8194     0.999916   0.00108116 -3.50053e-05 
         300      31.9926     0.999917   0.00108118 -3.48569e-05 
         300      32.1662     0.999917   0.00108119 -3.47088e-05 
         300      32.3404     0.999917   0.00108121  -3.4559e-05 
         300      32.5149     0.999918   0.00108122 -3.44084e-05 
         300        32.69     0.999918   0.00108124 -3.42568e-05 
         300      32.8655     0.999918   0.00108126 -3.41047e-05 
         300      33.0414     0.999919   0.00108127 -3.39525e-05 
         300       33.218     0.999919   0.00108129 -3.38001e-05 
         300      33.3948     0.999919    0.0010813  -3.3648e-05 
         300      33.5723      0.99992   0.00108132 -3.34957e-05 
         300        33.75      0.99992   0.00108133 -3.33431e-05 
         300      33.9284     0.999921   0.00108135 -3.31898e-05 
         300      34.1073     0.999921   0.00108137 -3.30357e-05 
         300      34.2865     0.999921   0.00108138 -3.28808e-05 
         300      34.4663     0.999922    0.0010814 -3.27252e-05 
         300      34.6465     0.999922   0.00108141 -3.25694e-05 
         300      34.8272     0.999922   0.00108143 -3.24135e-05 
         300      35.0083     0.999923   0.00108144 -3.22577e-05 
         300        35.19     0.999923   0.00108146 -3.21006e-05 
         300      35.3721     0.999924   0.00108148 -3.19451e-05 
         300      35.5546     0.999924   0.00108149 -3.17907e-05 
         300      35.7377     0.999924   0.00108149 -3.16283e-05 
         300      35.9211     0.999925   0.00108152 -3.14662e-05 
         300      36.1052     0.999925   0.00108153 -3.13062e-05 
         300      36.2895     0.999926   0.00108155 -3.11475e-05 
         300      36.4745     0.999926   0.00108156 -3.09889e-05 
         300      36.6598     0.999926   0.00108158   -3.083e-05 
         300      36.8457     0.999927   0.00108159 -3.06703e-05 
         300      37.0321     0.999927   0.00108161 -3.05098e-05 
         300      37.2188     0.999927   0.00108162 -3.03488e-05 
         300      37.4062     0.999928   0.00108164 -3.01871e-05 
         300      37.5938     0.999928   0.00108166 -3.00252e-05 
         300      37.7821     0.999929   0.00108167  -2.9863e-05 
         300      37.9707     0.999929   0.00108168 -2.97006e-05 
         300      38.1599     0.999929    0.0010817 -2.95376e-05 
         300      38.3496      0.99993   0.00108171 -2.93738e-05 
         300      38.5396      0.99993   0.00108173 -2.92092e-05 
         300      38.7302     0.999931   0.00108174 -2.90436e-05 
         300      38.9211     0.999931   0.00108176 -2.88783e-05 
         300      39.1127     0.999931   0.00108177 -2.87132e-05 
         300      39.3046     0.999932   0.00108179 -2.85476e-05 
         300      39.4971     0.999932    0.0010818 -2.83819e-05 
         300      39.6899     0.999932   0.00108182 -2.82157e-05 
         300      39.8833     0.999933   0.00108183 -2.80486e-05 
         300      40.0772     0.999933   0.00108184 -2.78806e-05 
         300      40.2714     0.999934   0.00108186 -2.77121e-05 
         300      40.4663     0.999934   0.00108187  -2.7543e-05 
         300      40.6615     0.999934   0.00108189  -2.7374e-05 
         300      40.8573     0.999935    0.0010819 -2.72049e-05 
         300      41.0534     0.999935   0.00108192 -2.70359e-05 
         300      41.2501     0.999936   0.00108193 -2.68664e-05 
         300      41.4473     0.999936   0.00108195 -2.66958e-05 
         300      41.6448     0.999937   0.00108195 -2.65228e-05 
         300      41.8429     0.999937   0.00108197 -2.63536e-05 
         300      42.0414     0.999937   0.00108198 -2.61828e-05 
         300      42.2405     0.999938     0.001082 -2.60107e-05 
         300      42.4399     0.999938   0.00108201 -2.58381e-05 
         300      42.6399     0.999939   0.00108203 -2.56649e-05 
         300      42.8404     0.999939   0.00108204 -2.54913e-05 
         300      43.0412     0.999939   0.00108206 -2.53177e-05 
         300      43.2426      0.99994   0.00108207 -2.51436e-05 
         300      43.4444      0.99994   0.00108208 -2.49694e-05 
         300      43.6467     0.999941   0.00108209 -2.47948e-05 
         300      43.8494     0.999941   0.00108211 -2.46198e-05 
         300      44.0527     0.999941   0.00108212 -2.44438e-05 
         300      44.2563     0.999942   0.00108213 -2.42665e-05 
         300      44.4606     0.999942   0.00108215 -2.40906e-05 
         300      44.6653     0.999943   0.00108216 -2.39134e-05 
         300      44.8704     0.999943   0.00108217 -2.37355e-05 
         300       45.076     0.999943   0.00108219  -2.3557e-05 
         300       45.282     0.999944    0.0010822 -2.33784e-05 
         300      45.4886     0.999944   0.00108221 -2.31997e-05 
         300      45.6955     0.999945   0.00108223  -2.3021e-05 
         300       45.903     0.999945   0.00108224 -2.28421e-05 
         300      46.1111     0.999945   0.00108225 -2.26628e-05 
         300      46.3194     0.999946   0.00108226 -2.24832e-05 
         300      46.5283     0.999946   0.00108228 -2.23028e-05 
         300      46.7376     0.999947   0.00108229 -2.21218e-05 
         300      46.9475     0.999947    0.0010823 -2.19399e-05 
         300      47.1577     0.999948   0.00108232 -2.17578e-05 
         300      47.3685     0.999948   0.00108233 -2.15755e-05 
         300      47.5798     0.999948   0.00108234  -2.1394e-05 
         300      47.7914     0.999949   0.00108235 -2.12095e-05 
         300      48.0037     0.999949   0.00108237 -2.10245e-05 