Variables = x, y, u, v, p

Zone, I=800, F=POINT
         150            0           -0           -0 -9.36722e-05 
         150     0.000234  0.000111152  1.33246e-11 -9.36721e-05 
         150     0.000939  0.000446032  2.14563e-10 -9.36718e-05 
         150     0.002113   0.00100369  1.08648e-09 -9.36712e-05 
         150     0.003759   0.00178556   3.4385e-09 -9.36704e-05 
         150     0.005872   0.00278925  8.39069e-09 -9.36694e-05 
         150     0.008457   0.00401715  1.74044e-08 -9.36681e-05 
         150      0.01151   0.00546736  3.22388e-08 -9.36666e-05 
         150     0.015036   0.00714225  5.50167e-08 -9.36649e-05 
         150     0.019031   0.00903992  8.81363e-08  -9.3663e-05 
         150     0.023493    0.0111594  1.34311e-07 -9.36608e-05 
         150     0.028429    0.0135041  1.96679e-07 -9.36584e-05 
         150     0.033831    0.0160701  2.78527e-07 -9.36558e-05 
         150     0.039706    0.0188609  3.83665e-07 -9.36529e-05 
         150     0.046047    0.0218729  5.15995e-07 -9.36498e-05 
         150     0.052863    0.0251107  6.80062e-07 -9.36465e-05 
         150      0.06015    0.0285721  8.80478e-07 -9.36429e-05 
         150       0.0679    0.0322535  1.12199e-06 -9.36392e-05 
         150     0.076126     0.036161  1.41032e-06 -9.36352e-05 
         150     0.084816    0.0402888  1.75069e-06 -9.36309e-05 
         150     0.093982    0.0446427  2.14953e-06 -9.36265e-05 
         150     0.103611    0.0492165  2.61256e-06 -9.36218e-05 
         150     0.113718    0.0540173  3.14712e-06 -9.36169e-05 
         150     0.124286    0.0590368  3.75922e-06 -9.36117e-05 
         150     0.135333    0.0642837  4.45715e-06 -9.36063e-05 
         150      0.14685    0.0697537    5.248e-06 -9.36007e-05 
         150     0.158827    0.0754417  6.13886e-06 -9.35949e-05 
         150     0.171284    0.0813574  7.13944e-06 -9.35888e-05 
         150     0.184201    0.0874909  8.25664e-06 -9.35825e-05 
         150     0.197599    0.0938523  9.50111e-06  -9.3576e-05 
         150     0.211455      0.10043  1.08798e-05 -9.35692e-05 
         150     0.225792     0.107236  1.24046e-05 -9.35622e-05 
         150       0.2406     0.114263  1.40841e-05  -9.3555e-05 
         150     0.255865     0.121506  1.59267e-05 -9.35476e-05 
         150     0.271613     0.128977  1.79459e-05 -9.35399e-05 
         150     0.287818     0.136662   2.0149e-05 -9.35319e-05 
         150     0.304506     0.144574  2.25505e-05 -9.35238e-05 
         150      0.32165     0.152699  2.51575e-05 -9.35154e-05 
         150     0.339278      0.16105  2.79859e-05 -9.35067e-05 
         150     0.357377     0.169619  3.10453e-05 -9.34979e-05 
         150      0.37593     0.178399  3.43447e-05 -9.34888e-05 
         150     0.394968     0.187402  3.79017e-05 -9.34794e-05 
         150     0.414461     0.196614   4.1723e-05 -9.34698e-05 
         150      0.43444     0.206048  4.58274e-05 -9.34599e-05 
         150     0.454872     0.215687  5.02207e-05 -9.34498e-05 
         150     0.475791     0.225546   5.4923e-05 -9.34395e-05 
         150     0.497163     0.235607  5.99399e-05 -9.34289e-05 
         150     0.519021     0.245883  6.52919e-05  -9.3418e-05 
         150      0.54135     0.256365   7.0989e-05 -9.34068e-05 
         150     0.564131     0.267043  7.70392e-05 -9.33954e-05 
         150       0.5874      0.27793   8.3465e-05 -9.33837e-05 
         150     0.611121     0.289007  9.02699e-05 -9.33717e-05 
         150      0.63533     0.300287   9.7477e-05 -9.33595e-05 
         150      0.65999     0.311751  0.000105088 -9.33469e-05 
         150     0.685139     0.323411  0.000113128 -9.33341e-05 
         150     0.710759     0.335255  0.000121603 -9.33209e-05 
         150     0.736828     0.347268  0.000130518 -9.33074e-05 
         150     0.763387     0.359466  0.000139898 -9.32936e-05 
         150     0.790396     0.371823  0.000149741 -9.32794e-05 
         150     0.817896     0.384353  0.000160072 -9.32649e-05 
         150     0.845843      0.39703  0.000170884   -9.325e-05 
         150     0.874283     0.409868  0.000182205 -9.32347e-05 
         150      0.90317     0.422839  0.000194025 -9.32191e-05 
         150     0.932551     0.435956   0.00020637  -9.3203e-05 
         150     0.962401       0.4492  0.000219237 -9.31865e-05 
         150     0.992697     0.462551  0.000232621 -9.31696e-05 
         150      1.02349     0.476023  0.000246547 -9.31522e-05 
         150      1.05472     0.489583  0.000260995 -9.31343e-05 
         150      1.08645     0.503242   0.00027599 -9.31159e-05 
         150      1.11863     0.516967  0.000291508  -9.3097e-05 
         150       1.1513     0.530768  0.000307572 -9.30775e-05 
         150      1.18444     0.544622  0.000324164 -9.30575e-05 
         150      1.21802     0.558504  0.000341265 -9.30369e-05 
         150      1.25211     0.572424  0.000358896 -9.30156e-05 
         150      1.28663     0.586343  0.000377016 -9.29937e-05 
         150      1.32165      0.60027  0.000395644 -9.29711e-05 
         150      1.35712     0.614167  0.000414733 -9.29479e-05 
         150      1.39308     0.628039  0.000434297 -9.29238e-05 
         150      1.42951      0.64186  0.000454302  -9.2899e-05 
         150      1.46638     0.655601  0.000474708 -9.28734e-05 
         150      1.50375     0.669266  0.000495523  -9.2847e-05 
         150      1.54156     0.682817  0.000516685 -9.28197e-05 
         150      1.57987     0.696256  0.000538198 -9.27915e-05 
         150      1.61863     0.709544  0.000559995 -9.27624e-05 
         150      1.65788     0.722684  0.000582074 -9.27324e-05 
         150      1.69757     0.735635  0.000604363 -9.27013e-05 
         150      1.73776     0.748401  0.000626855 -9.26693e-05 
         150      1.77842     0.760954  0.000649491 -9.26362e-05 
         150      1.81952     0.773264  0.000672206  -9.2602e-05 
         150      1.86113     0.785334  0.000694992 -9.25667e-05 
         150      1.90316     0.797128  0.000717762 -9.25304e-05 
         150      1.94571     0.808647  0.000740503 -9.24928e-05 
         150      1.98869     0.819859  0.000763127 -9.24542e-05 
         150      2.03217     0.830765   0.00078562 -9.24143e-05 
         150      2.07612     0.841343   0.00080791 -9.23732e-05 
         150      2.12051     0.851572  0.000829929 -9.23309e-05 
         150       2.1654     0.861456  0.000851658 -9.22874e-05 
         150      2.21073      0.87097  0.000873013 -9.22427e-05 
         150      2.25656     0.880118  0.000893978 -9.21967e-05 
         150      2.30283      0.88888  0.000914472 -9.21495e-05 
         150       2.3496     0.897264  0.000934479  -9.2101e-05 
         150      2.39685     0.905257  0.000953942 -9.20513e-05 
         150      2.44452     0.912851  0.000972804 -9.20004e-05 
         150      2.49271     0.920057  0.000991056 -9.19482e-05 
         150      2.54132     0.926865   0.00100864 -9.18949e-05 
         150      2.59044     0.933287   0.00102555 -9.18404e-05 
         150         2.64     0.939317   0.00104173 -9.17847e-05 
         150      2.69006      0.94497   0.00105719 -9.17278e-05 
         150      2.74056     0.950245   0.00107189 -9.16698e-05 
         150      2.79156     0.955158   0.00108584 -9.16106e-05 
         150      2.84304     0.959714   0.00109901 -9.15504e-05 
         150      2.89494     0.963923   0.00111141 -9.14891e-05 
         150      2.94735     0.967802   0.00112304 -9.14268e-05 
         150       3.0002      0.97136    0.0011339 -9.13634e-05 
         150      3.05355     0.974615   0.00114402 -9.12991e-05 
         150      3.10733     0.977578   0.00115339 -9.12338e-05 
         150      3.16163     0.980268   0.00116205 -9.11675e-05 
         150      3.21639     0.982699   0.00117002 -9.11002e-05 
         150      3.27158     0.984885   0.00117731 -9.10322e-05 
         150      3.32729     0.986847   0.00118396 -9.09632e-05 
         150      3.38342     0.988596   0.00118999 -9.08935e-05 
         150      3.44007     0.990152   0.00119545 -9.08229e-05 
         150      3.49714     0.991528   0.00120036 -9.07516e-05 
         150      3.55472     0.992741   0.00120476 -9.06794e-05 
         150      3.61273     0.993804   0.00120868 -9.06065e-05 
         150      3.67125     0.994732   0.00121217 -9.05328e-05 
         150      3.73025     0.995539   0.00121524 -9.04584e-05 
         150      3.78967     0.996236   0.00121795 -9.03833e-05 
         150      3.84961     0.996836   0.00122031 -9.03075e-05 
         150      3.90996     0.997349   0.00122237 -9.02311e-05 
         150      3.97084     0.997787   0.00122416  -9.0154e-05 
         150      4.03214     0.998157    0.0012257 -9.00762e-05 
         150      4.09395      0.99847   0.00122701 -8.99977e-05 
         150      4.15624     0.998732   0.00122814 -8.99185e-05 
         150      4.21895      0.99895    0.0012291 -8.98388e-05 
         150      4.28217     0.999132    0.0012299 -8.97583e-05 
         150      4.34582     0.999281   0.00123058 -8.96773e-05 
         150      4.40998     0.999404   0.00123115 -8.95957e-05 
         150      4.47457     0.999504   0.00123162 -8.95135e-05 
         150      4.53968     0.999585   0.00123202 -8.94306e-05 
         150      4.60525      0.99965   0.00123234 -8.93471e-05 
         150      4.67125     0.999702   0.00123261 -8.92629e-05 
         150      4.73777     0.999744   0.00123283 -8.91781e-05 
         150       4.8047     0.999777   0.00123301 -8.90928e-05 
         150      4.87216     0.999803   0.00123316 -8.90068e-05 
         150      4.94003     0.999823   0.00123328 -8.89202e-05 
         150      5.00843     0.999839   0.00123338  -8.8833e-05 
         150      5.07724     0.999851   0.00123346 -8.87453e-05 
         150      5.14658      0.99986   0.00123353 -8.86569e-05 
         150      5.21639     0.999868   0.00123359 -8.85678e-05 
         150      5.28661     0.999873   0.00123364 -8.84783e-05 
         150      5.35736     0.999877   0.00123368  -8.8388e-05 
         150      5.42852      0.99988   0.00123371 -8.82972e-05 
         150      5.50021     0.999883   0.00123375 -8.82058e-05 
         150      5.57231     0.999884   0.00123378 -8.81137e-05 
         150      5.64493     0.999886    0.0012338 -8.80211e-05 
         150      5.71803     0.999887   0.00123383 -8.79278e-05 
         150      5.79154     0.999887   0.00123386 -8.78339e-05 
         150      5.86558     0.999888   0.00123388 -8.77395e-05 
         150      5.94003     0.999888    0.0012339 -8.76445e-05 
         150      6.01501     0.999889   0.00123393 -8.75488e-05 
         150       6.0904     0.999889   0.00123395 -8.74525e-05 
         150      6.16632     0.999889   0.00123397 -8.73556e-05 
         150      6.24271      0.99989   0.00123399 -8.72581e-05 
         150       6.3195      0.99989   0.00123401   -8.716e-05 
         150      6.39683      0.99989   0.00123404 -8.70612e-05 
         150      6.47457      0.99989   0.00123406 -8.69619e-05 
         150      6.55284      0.99989   0.00123408 -8.68619e-05 
         150      6.63152      0.99989    0.0012341 -8.67614e-05 
         150      6.71073     0.999891   0.00123413 -8.66602e-05 
         150      6.79034     0.999891   0.00123415 -8.65585e-05 
         150      6.87049     0.999891   0.00123417 -8.64561e-05 
         150      6.95111     0.999891    0.0012342  -8.6353e-05 
         150      7.03214     0.999891   0.00123422 -8.62495e-05 
         150       7.1137     0.999891   0.00123424 -8.61452e-05 
         150      7.19566     0.999892   0.00123426 -8.60405e-05 
         150      7.27816     0.999892   0.00123429  -8.5935e-05 
         150      7.36106     0.999892   0.00123431 -8.58291e-05 
         150      7.44451     0.999892   0.00123433 -8.57224e-05 
         150      7.52842     0.999892   0.00123436  -8.5615e-05 
         150      7.61273     0.999892   0.00123438 -8.55072e-05 
         150      7.69758     0.999893   0.00123441 -8.53986e-05 
         150      7.78283     0.999893   0.00123443 -8.52895e-05 
         150      7.86862     0.999893   0.00123445 -8.51798e-05 
         150      7.95481     0.999893   0.00123448 -8.50698e-05 
         150      8.04155     0.999893    0.0012345 -8.49586e-05 
         150      8.12868     0.999893   0.00123453 -8.48471e-05 
         150      8.21635     0.999894   0.00123455 -8.47349e-05 
         150      8.30449     0.999894   0.00123457 -8.46222e-05 
         150      8.39303     0.999894    0.0012346 -8.45089e-05 
         150      8.48211     0.999894   0.00123462 -8.43948e-05 
         150      8.57159     0.999894   0.00123465 -8.42803e-05 
         150      8.66161     0.999894   0.00123467  -8.4165e-05 
         150      8.75203     0.999895    0.0012347 -8.40492e-05 
         150      8.84299     0.999895   0.00123472 -8.39327e-05 
         150      8.93443     0.999895   0.00123475 -8.38156e-05 
         150      9.02626     0.999895   0.00123477  -8.3698e-05 
         150      9.11863     0.999895    0.0012348 -8.35797e-05 
         150      9.21139     0.999895   0.00123482 -8.34609e-05 
         150      9.30471     0.999896   0.00123485 -8.33414e-05 
         150      9.39841     0.999896   0.00123488 -8.32213e-05 
         150      9.49267     0.999896    0.0012349 -8.31005e-05 
         150      9.58739     0.999896   0.00123493  -8.2979e-05 
         150      9.68251     0.999896   0.00123495 -8.28571e-05 
         150      9.77817     0.999897   0.00123498 -8.27346e-05 
         150      9.87422     0.999897   0.00123501 -8.26115e-05 
         150      9.97083     0.999897   0.00123503 -8.24877e-05 
         150      10.0678     0.999897   0.00123506 -8.23634e-05 
         150      10.1654     0.999897   0.00123508 -8.22383e-05 
         150      10.2633     0.999898   0.00123511 -8.21126e-05 
         150      10.3618     0.999898   0.00123514 -8.19862e-05 
         150      10.4607     0.999898   0.00123516 -8.18593e-05 
         150      10.5601     0.999898   0.00123519 -8.17319e-05 
         150        10.66     0.999898   0.00123522  -8.1604e-05 
         150      10.7603     0.999898   0.00123524  -8.1475e-05 
         150      10.8611     0.999899   0.00123527 -8.13456e-05 
         150      10.9623     0.999899    0.0012353 -8.12158e-05 
         150      11.0641     0.999899   0.00123533 -8.10852e-05 
         150      11.1663     0.999899   0.00123535  -8.0954e-05 
         150       11.269     0.999899   0.00123538 -8.08222e-05 
         150      11.3721       0.9999   0.00123541 -8.06897e-05 
         150      11.4757       0.9999   0.00123543 -8.05567e-05 
         150      11.5798       0.9999   0.00123546 -8.04231e-05 
         150      11.6844       0.9999   0.00123549 -8.02889e-05 
         150      11.7894       0.9999   0.00123552 -8.01539e-05 
         150       11.895     0.999901   0.00123555 -8.00183e-05 
         150      12.0009     0.999901   0.00123557 -7.98822e-05 
         150      12.1073     0.999901    0.0012356 -7.97454e-05 
         150      12.2142     0.999901   0.00123563 -7.96081e-05 
         150      12.3216     0.999901   0.00123566 -7.94701e-05 
         150      12.4294     0.999902   0.00123569 -7.93315e-05 
         150      12.5378     0.999902   0.00123571 -7.91923e-05 
         150      12.6465     0.999902   0.00123574 -7.90525e-05 
         150      12.7558     0.999902   0.00123577  -7.8912e-05 
         150      12.8656     0.999902    0.0012358 -7.87707e-05 
         150      12.9757     0.999903   0.00123583 -7.86289e-05 
         150      13.0864     0.999903   0.00123586 -7.84864e-05 
         150      13.1975     0.999903   0.00123588 -7.83436e-05 
         150      13.3092     0.999903   0.00123591    -7.82e-05 
         150      13.4212     0.999904   0.00123594  -7.8056e-05 
         150      13.5338     0.999904   0.00123597 -7.79112e-05 
         150      13.6468     0.999904     0.001236 -7.77656e-05 
         150      13.7603     0.999904   0.00123603 -7.76195e-05 
         150      13.8743     0.999904   0.00123606 -7.74727e-05 
         150      13.9886     0.999905   0.00123609 -7.73255e-05 
         150      14.1036     0.999905   0.00123612 -7.71776e-05 
         150      14.2189     0.999905   0.00123615 -7.70292e-05 
         150      14.3348     0.999905   0.00123618 -7.68799e-05 
         150       14.451     0.999905    0.0012362 -7.67302e-05 
         150      14.5678     0.999906   0.00123623 -7.65797e-05 
         150      14.6851     0.999906   0.00123626 -7.64286e-05 
         150      14.8028     0.999906   0.00123629 -7.62771e-05 
         150       14.921     0.999906   0.00123632 -7.61248e-05 
         150      15.0396     0.999907   0.00123635  -7.5972e-05 
         150      15.1588     0.999907   0.00123638 -7.58183e-05 
         150      15.2783     0.999907   0.00123641 -7.56641e-05 
         150      15.3984     0.999907   0.00123644 -7.55092e-05 
         150       15.519     0.999907   0.00123647 -7.53536e-05 
         150        15.64     0.999908    0.0012365 -7.51975e-05 
         150      15.7615     0.999908   0.00123653 -7.50409e-05 
         150      15.8834     0.999908   0.00123656 -7.48838e-05 
         150      16.0058     0.999908   0.00123659 -7.47259e-05 
         150      16.1286     0.999909   0.00123662 -7.45674e-05 
         150       16.252     0.999909   0.00123665 -7.44082e-05 
         150      16.3759     0.999909   0.00123668 -7.42483e-05 
         150      16.5002     0.999909   0.00123671 -7.40879e-05 
         150       16.625     0.999909   0.00123674 -7.39269e-05 
         150      16.7501      0.99991   0.00123677 -7.37656e-05 
         150      16.8759      0.99991   0.00123681 -7.36028e-05 
         150       17.002      0.99991   0.00123684 -7.34398e-05 
         150      17.1287      0.99991   0.00123687 -7.32762e-05 
         150      17.2557     0.999911    0.0012369 -7.31123e-05 
         150      17.3834     0.999911   0.00123693 -7.29476e-05 
         150      17.5115     0.999911   0.00123696 -7.27822e-05 
         150      17.6399     0.999911   0.00123699 -7.26163e-05 
         150       17.769     0.999911   0.00123702 -7.24495e-05 
         150      17.8984     0.999912   0.00123705 -7.22822e-05 
         150      18.0284     0.999912   0.00123708 -7.21141e-05 
         150      18.1587     0.999912   0.00123711 -7.19457e-05 
         150      18.2896     0.999912   0.00123714 -7.17764e-05 
         150       18.421     0.999913   0.00123718 -7.16066e-05 
         150      18.5528     0.999913   0.00123721 -7.14362e-05 
         150      18.6851     0.999913   0.00123724 -7.12651e-05 
         150      18.8178     0.999913   0.00123727 -7.10935e-05 
         150      18.9511     0.999914    0.0012373 -7.09212e-05 
         150      19.0847     0.999914   0.00123733 -7.07484e-05 
         150      19.2189     0.999914   0.00123736 -7.05747e-05 
         150      19.3535     0.999914   0.00123739 -7.04004e-05 
         150      19.4886     0.999915   0.00123743 -7.02253e-05 
         150      19.6242     0.999915   0.00123746   -7.005e-05 
         150      19.7602     0.999915   0.00123749 -6.98741e-05 
         150      19.8968     0.999915   0.00123752 -6.96973e-05 
         150      20.0337     0.999916   0.00123755 -6.95199e-05 
         150      20.1712     0.999916   0.00123758 -6.93417e-05 
         150      20.3091     0.999916   0.00123762  -6.9163e-05 
         150      20.4475     0.999916   0.00123765 -6.89835e-05 
         150      20.5864     0.999917   0.00123768 -6.88036e-05 
         150      20.7257     0.999917   0.00123771 -6.86235e-05 
         150      20.8655     0.999917   0.00123774 -6.84425e-05 
         150      21.0058     0.999917   0.00123777 -6.82607e-05 
         150      21.1465     0.999918    0.0012378  -6.8078e-05 
         150      21.2877     0.999918   0.00123784  -6.7895e-05 
         150      21.4294     0.999918   0.00123787 -6.77113e-05 
         150      21.5716     0.999918    0.0012379 -6.75277e-05 
         150      21.7142     0.999919   0.00123793 -6.73426e-05 
         150      21.8573     0.999919   0.00123796 -6.71562e-05 
         150      22.0008     0.999919     0.001238   -6.697e-05 
         150      22.1449     0.999919   0.00123803 -6.67834e-05 
         150      22.2893      0.99992   0.00123806 -6.65964e-05 
         150      22.4344      0.99992   0.00123809 -6.64085e-05 
         150      22.5797      0.99992   0.00123812   -6.622e-05 
         150      22.7257      0.99992   0.00123815 -6.60307e-05 
         150      22.8721     0.999921   0.00123819 -6.58405e-05 
         150      23.0189     0.999921   0.00123822 -6.56498e-05 
         150      23.1663     0.999921   0.00123825 -6.54582e-05 
         150       23.314     0.999921   0.00123828 -6.52662e-05 
         150      23.4623     0.999922   0.00123831 -6.50735e-05 
         150       23.611     0.999922   0.00123835 -6.48809e-05 
         150      23.7602     0.999922   0.00123838  -6.4687e-05 
         150        23.91     0.999922   0.00123841 -6.44927e-05 
         150        24.06     0.999923   0.00123844 -6.42978e-05 
         150      24.2107     0.999923   0.00123847 -6.41019e-05 
         150      24.3617     0.999923   0.00123851 -6.39054e-05 
         150      24.5133     0.999923   0.00123854 -6.37081e-05 
         150      24.6653     0.999924   0.00123857 -6.35104e-05 
         150      24.8178     0.999924    0.0012386  -6.3312e-05 
         150      24.9708     0.999924   0.00123864 -6.31132e-05 
         150      25.1242     0.999924   0.00123867  -6.2914e-05 
         150      25.2781     0.999925    0.0012387  -6.2714e-05 
         150      25.4324     0.999925   0.00123873 -6.25135e-05 
         150      25.5873     0.999925   0.00123876 -6.23121e-05 
         150      25.7426     0.999926    0.0012388 -6.21101e-05 
         150      25.8984     0.999926   0.00123883 -6.19073e-05 
         150      26.0546     0.999926   0.00123886  -6.1704e-05 
         150      26.2114     0.999926   0.00123889 -6.15001e-05 
         150      26.3686     0.999927   0.00123892 -6.12959e-05 
         150      26.5262     0.999927   0.00123895 -6.10914e-05 
         150      26.6844     0.999927   0.00123899 -6.08842e-05 
         150      26.8429     0.999927   0.00123902 -6.06774e-05 
         150       27.002     0.999928   0.00123904 -6.04718e-05 
         150      27.1615     0.999928   0.00123908 -6.02631e-05 
         150      27.3216     0.999928   0.00123911 -6.00543e-05 
         150      27.4821     0.999928   0.00123915 -5.98453e-05 
         150       27.643     0.999929   0.00123919  -5.9636e-05 
         150      27.8044     0.999929   0.00123922  -5.9426e-05 
         150      27.9663     0.999929   0.00123925 -5.92155e-05 
         150      28.1287      0.99993   0.00123928 -5.90039e-05 
         150      28.2914      0.99993   0.00123931 -5.87918e-05 
         150      28.4548      0.99993   0.00123934 -5.85786e-05 
         150      28.6185      0.99993   0.00123937 -5.83647e-05 
         150      28.7828     0.999931    0.0012394 -5.81499e-05 
         150      28.9475     0.999931   0.00123944 -5.79343e-05 
         150      29.1126     0.999931   0.00123947 -5.77183e-05 
         150      29.2784     0.999931    0.0012395 -5.75017e-05 
         150      29.4444     0.999932   0.00123953  -5.7285e-05 
         150       29.611     0.999932   0.00123956 -5.70679e-05 
         150       29.778     0.999932   0.00123959 -5.68509e-05 
         150      29.9456     0.999933   0.00123963 -5.66332e-05 
         150      30.1137     0.999933   0.00123966 -5.64145e-05 
         150      30.2821     0.999933   0.00123968 -5.61939e-05 
         150      30.4511     0.999933   0.00123973 -5.59728e-05 
         150      30.6204     0.999934   0.00123976 -5.57508e-05 
         150      30.7903     0.999934   0.00123979 -5.55282e-05 
         150      30.9606     0.999934   0.00123982 -5.53057e-05 
         150      31.1315     0.999935   0.00123985  -5.5083e-05 
         150      31.3028     0.999935   0.00123988 -5.48601e-05 
         150      31.4745     0.999935   0.00123992 -5.46367e-05 
         150      31.6468     0.999935   0.00123994 -5.44122e-05 
         150      31.8194     0.999936   0.00123997 -5.41867e-05 
         150      31.9926     0.999936      0.00124 -5.39595e-05 
         150      32.1662     0.999936   0.00124003 -5.37313e-05 
         150      32.3404     0.999937   0.00124006 -5.35019e-05 
         150      32.5149     0.999937    0.0012401 -5.32723e-05 
         150        32.69     0.999937   0.00124013 -5.30432e-05 
         150      32.8655     0.999937   0.00124016 -5.28163e-05 
         150      33.0414     0.999938   0.00124019 -5.25913e-05 
         150       33.218     0.999938   0.00124022 -5.23547e-05 
         150      33.3948     0.999938   0.00124026 -5.21216e-05 
         150      33.5723     0.999939   0.00124029 -5.18894e-05 
         150        33.75     0.999939   0.00124032 -5.16586e-05 
         150      33.9284     0.999939   0.00124035 -5.14267e-05 
         150      34.1073     0.999939   0.00124038 -5.11887e-05 
         150      34.2865      0.99994   0.00124042 -5.09532e-05 
         150      34.4663      0.99994   0.00124044 -5.07177e-05 
         150      34.6465      0.99994   0.00124047 -5.04817e-05 
         150      34.8272     0.999941   0.00124049 -5.02451e-05 
         150      35.0083     0.999941   0.00124052 -5.00088e-05 
         150        35.19     0.999941   0.00124056 -4.97734e-05 
         150      35.3721     0.999942    0.0012406 -4.95374e-05 
         150      35.5546     0.999942   0.00124063 -4.92962e-05 
         150      35.7377     0.999942   0.00124065 -4.90551e-05 
         150      35.9211     0.999942   0.00124068 -4.88142e-05 
         150      36.1052     0.999943   0.00124071 -4.85732e-05 
         150      36.2895     0.999943   0.00124074 -4.83324e-05 
         150      36.4745     0.999943   0.00124077 -4.80912e-05 
         150      36.6598     0.999944    0.0012408 -4.78498e-05 
         150      36.8457     0.999944   0.00124084 -4.76073e-05 
         150      37.0321     0.999944   0.00124087 -4.73633e-05 
         150      37.2188     0.999945   0.00124091 -4.71175e-05 
         150      37.4062     0.999945   0.00124094 -4.68696e-05 
         150      37.5938     0.999945   0.00124096 -4.66212e-05 
         150      37.7821     0.999945   0.00124098 -4.63751e-05 
         150      37.9707     0.999946   0.00124101 -4.61272e-05 
         150      38.1599     0.999946   0.00124104 -4.58773e-05 
         150      38.3496     0.999946   0.00124107 -4.56309e-05 
         150      38.5396     0.999947    0.0012411 -4.53837e-05 
         150      38.7302     0.999947   0.00124112 -4.51335e-05 
         150      38.9211     0.999947   0.00124114 -4.48804e-05 
         150      39.1127     0.999947   0.00124117 -4.46238e-05 
         150      39.3046     0.999948    0.0012412 -4.43736e-05 
         150      39.4971     0.999948   0.00124123 -4.41243e-05 
         150      39.6899     0.999948   0.00124127 -4.38722e-05 
         150      39.8833     0.999949   0.00124131 -4.36175e-05 
         150      40.0772     0.999949   0.00124135 -4.33612e-05 
         150      40.2714     0.999949   0.00124138 -4.31042e-05 
         150      40.4663      0.99995    0.0012414 -4.28466e-05 
         150      40.6615      0.99995   0.00124142 -4.25893e-05 
         150      40.8573      0.99995   0.00124144 -4.23321e-05 
         150      41.0534     0.999951   0.00124147 -4.20754e-05 
         150      41.2501     0.999951    0.0012415 -4.18183e-05 
         150      41.4473     0.999951   0.00124153 -4.15605e-05 
         150      41.6448     0.999952   0.00124157 -4.13015e-05 
         150      41.8429     0.999952    0.0012416 -4.10407e-05 
         150      42.0414     0.999952   0.00124162 -4.07784e-05 
         150      42.2405     0.999953   0.00124163 -4.05153e-05 
         150      42.4399     0.999953   0.00124167 -4.02546e-05 
         150      42.6399     0.999953   0.00124169 -3.99916e-05 
         150      42.8404     0.999953   0.00124171  -3.9726e-05 
         150      43.0412     0.999954   0.00124175  -3.9462e-05 
         150      43.2426     0.999954   0.00124179 -3.91982e-05 
         150      43.4444     0.999954   0.00124181 -3.89343e-05 
         150      43.6467     0.999955   0.00124183 -3.86691e-05 
         150      43.8494     0.999955   0.00124185 -3.84026e-05 
         150      44.0527     0.999955   0.00124187  -3.8134e-05 
         150      44.2563     0.999956    0.0012419 -3.78644e-05 
         150      44.4606     0.999956   0.00124194 -3.75958e-05 
         150      44.6653     0.999956   0.00124196 -3.73275e-05 
         150      44.8704     0.999957     0.001242 -3.70558e-05 
         150       45.076     0.999957   0.00124202 -3.67853e-05 
         150       45.282     0.999957   0.00124204 -3.65148e-05 
         150      45.4886     0.999958   0.00124206 -3.62429e-05 
         150      45.6955     0.999958   0.00124208 -3.59699e-05 
         150       45.903     0.999958   0.00124211 -3.56957e-05 
         150      46.1111     0.999959   0.00124213 -3.54205e-05 
         150      46.3194     0.999959   0.00124216 -3.51451e-05 
         150      46.5283     0.999959   0.00124219  -3.4869e-05 
         150      46.7376     0.999959   0.00124222  -3.4593e-05 
         150      46.9475      0.99996   0.00124224 -3.43166e-05 
         150      47.1577      0.99996   0.00124227   -3.404e-05 
         150      47.3685      0.99996   0.00124229 -3.37627e-05 
         150      47.5798     0.999961   0.00124231 -3.34846e-05 
         150      47.7914     0.999961   0.00124233 -3.32059e-05 
         150      48.0037     0.999962   0.00124236  -3.2926e-05 