Variables = x, y, u, v, p

Zone, I=800, F=POINT
         -50            0           -0           -0 -0.000194684 
         -50     0.000234  0.000144779  2.95947e-11 -0.000194684 
         -50     0.000939  0.000580973  4.76555e-10 -0.000194683 
         -50     0.002113   0.00130735  2.41313e-09 -0.000194682 
         -50     0.003759   0.00232575  7.63705e-09  -0.00019468 
         -50     0.005872    0.0036331   1.8636e-08 -0.000194677 
         -50     0.008457   0.00523249  3.86555e-08 -0.000194675 
         -50      0.01151   0.00712145  7.16025e-08 -0.000194671 
         -50     0.015036   0.00930306  1.22191e-07 -0.000194668 
         -50     0.019031    0.0117749  1.95748e-07 -0.000194663 
         -50     0.023493    0.0145356  2.98297e-07 -0.000194658 
         -50     0.028429    0.0175897  4.36811e-07 -0.000194653 
         -50     0.033831    0.0209321  6.18582e-07 -0.000194647 
         -50     0.039706    0.0245671  8.52072e-07 -0.000194641 
         -50     0.046047    0.0284905  1.14594e-06 -0.000194634 
         -50     0.052863    0.0327078  1.51029e-06 -0.000194627 
         -50      0.06015    0.0372165  1.95534e-06 -0.000194619 
         -50       0.0679    0.0420116  2.49163e-06  -0.00019461 
         -50     0.076126    0.0471012  3.13186e-06 -0.000194602 
         -50     0.084816    0.0524777  3.88762e-06 -0.000194592 
         -50     0.093982    0.0581487  4.77317e-06 -0.000194582 
         -50     0.103611    0.0641058  5.80118e-06 -0.000194572 
         -50     0.113718    0.0703584  6.98791e-06 -0.000194561 
         -50     0.124286    0.0768958   8.3467e-06 -0.000194549 
         -50     0.135333     0.083729   9.8959e-06 -0.000194538 
         -50      0.14685    0.0908521  1.16512e-05 -0.000194525 
         -50     0.158827    0.0982589  1.36282e-05 -0.000194512 
         -50     0.171284     0.105961  1.58484e-05 -0.000194499 
         -50     0.184201     0.113947  1.83271e-05 -0.000194485 
         -50     0.197599     0.122227  2.10876e-05  -0.00019447 
         -50     0.211455     0.130789  2.41453e-05 -0.000194455 
         -50     0.225792     0.139645   2.7526e-05  -0.00019444 
         -50       0.2406     0.148788   3.1249e-05 -0.000194424 
         -50     0.255865     0.158209  3.53322e-05 -0.000194407 
         -50     0.271613     0.167923  3.98053e-05  -0.00019439 
         -50     0.287818     0.177913  4.46837e-05 -0.000194372 
         -50     0.304506     0.188193  4.99989e-05 -0.000194354 
         -50      0.32165     0.198745  5.57662e-05 -0.000194335 
         -50     0.339278     0.209584  6.20193e-05 -0.000194316 
         -50     0.357377     0.220702  6.87788e-05 -0.000194296 
         -50      0.37593     0.232083   7.6063e-05 -0.000194276 
         -50     0.394968     0.243746  8.39093e-05 -0.000194255 
         -50     0.414461     0.255669  9.23307e-05 -0.000194233 
         -50      0.43444     0.267866  0.000101366 -0.000194211 
         -50     0.454872     0.280315  0.000111026 -0.000194188 
         -50     0.475791     0.293032  0.000121352 -0.000194165 
         -50     0.497163      0.30599  0.000132352 -0.000194141 
         -50     0.519021     0.319206  0.000144068 -0.000194116 
         -50      0.54135     0.332663  0.000156516 -0.000194091 
         -50     0.564131     0.346345  0.000169709 -0.000194065 
         -50       0.5874     0.360264   0.00018369 -0.000194038 
         -50     0.611121     0.374393  0.000198459  -0.00019401 
         -50      0.63533     0.388744  0.000214059 -0.000193982 
         -50      0.65999     0.403285  0.000230485 -0.000193953 
         -50     0.685139     0.418028  0.000247779 -0.000193923 
         -50     0.710759     0.432953  0.000265944 -0.000193892 
         -50     0.736828     0.448033  0.000284978  -0.00019386 
         -50     0.763387      0.46328  0.000304921 -0.000193827 
         -50     0.790396     0.478657   0.00032575 -0.000193793 
         -50     0.817896     0.494172  0.000347502 -0.000193758 
         -50     0.845843     0.509785  0.000370144 -0.000193722 
         -50     0.874283     0.525503   0.00039371 -0.000193685 
         -50      0.90317     0.541283  0.000418156 -0.000193647 
         -50     0.932551     0.557132  0.000443512 -0.000193607 
         -50     0.962401     0.573016  0.000469742 -0.000193566 
         -50     0.992697     0.588901  0.000496805 -0.000193523 
         -50      1.02349      0.60479  0.000524719 -0.000193479 
         -50      1.05472     0.620635   0.00055341 -0.000193433 
         -50      1.08645     0.636437  0.000582888 -0.000193386 
         -50      1.11863     0.652145  0.000613065 -0.000193337 
         -50       1.1513     0.667759  0.000643942 -0.000193286 
         -50      1.18444      0.68324  0.000675441 -0.000193233 
         -50      1.21802     0.698549  0.000707478 -0.000193179 
         -50      1.25211     0.713684  0.000740041 -0.000193122 
         -50      1.28663     0.728591  0.000773004 -0.000193063 
         -50      1.32165     0.743269  0.000806348 -0.000193002 
         -50      1.35712     0.757666  0.000839937 -0.000192939 
         -50      1.39308     0.771778  0.000873737 -0.000192873 
         -50      1.42951     0.785568  0.000907634 -0.000192805 
         -50      1.46638        0.799  0.000941506 -0.000192734 
         -50      1.50375      0.81207   0.00097531 -0.000192661 
         -50      1.54156     0.824734   0.00100889 -0.000192586 
         -50      1.57987     0.836991   0.00104221 -0.000192508 
         -50      1.61863     0.848802    0.0010751 -0.000192427 
         -50      1.65788     0.860167   0.00110753 -0.000192343 
         -50      1.69757     0.871052   0.00113933 -0.000192257 
         -50      1.73776     0.881461   0.00117047 -0.000192168 
         -50      1.77842     0.891375   0.00120082 -0.000192076 
         -50      1.81952     0.900777   0.00123028 -0.000191982 
         -50      1.86113     0.909677    0.0012588 -0.000191885 
         -50      1.90316     0.918058   0.00128627 -0.000191785 
         -50      1.94571     0.925933   0.00131266 -0.000191683 
         -50      1.98869     0.933292   0.00133788 -0.000191577 
         -50      2.03217     0.940153    0.0013619  -0.00019147 
         -50      2.07612     0.946519   0.00138468  -0.00019136 
         -50      2.12051     0.952395   0.00140616 -0.000191247 
         -50       2.1654     0.957805   0.00142635 -0.000191132 
         -50      2.21073     0.962755   0.00144522 -0.000191015 
         -50      2.25656     0.967271   0.00146279 -0.000190895 
         -50      2.30283     0.971365   0.00147906 -0.000190773 
         -50       2.3496     0.975064   0.00149405 -0.000190649 
         -50      2.39685     0.978388    0.0015078 -0.000190522 
         -50      2.44452     0.981357   0.00152033 -0.000190394 
         -50      2.49271        0.984   0.00153171 -0.000190264 
         -50      2.54132     0.986335   0.00154197 -0.000190132 
         -50      2.59044     0.988392   0.00155117 -0.000189998 
         -50         2.64      0.99019   0.00155938 -0.000189862 
         -50      2.69006     0.991755   0.00156667 -0.000189725 
         -50      2.74056     0.993108   0.00157308 -0.000189586 
         -50      2.79156     0.994272   0.00157871 -0.000189445 
         -50      2.84304     0.995266   0.00158362 -0.000189302 
         -50      2.89494      0.99611   0.00158786 -0.000189158 
         -50      2.94735     0.996823   0.00159151 -0.000189013 
         -50       3.0002      0.99742   0.00159463 -0.000188866 
         -50      3.05355     0.997918   0.00159728 -0.000188717 
         -50      3.10733      0.99833   0.00159952 -0.000188568 
         -50      3.16163     0.998668    0.0016014 -0.000188416 
         -50      3.21639     0.998944   0.00160296 -0.000188264 
         -50      3.27158     0.999168   0.00160426  -0.00018811 
         -50      3.32729     0.999348   0.00160532 -0.000187955 
         -50      3.38342     0.999492    0.0016062 -0.000187798 
         -50      3.44007     0.999605    0.0016069  -0.00018764 
         -50      3.49714     0.999695   0.00160748  -0.00018748 
         -50      3.55472     0.999765   0.00160794  -0.00018732 
         -50      3.61273     0.999819   0.00160831 -0.000187157 
         -50      3.67125     0.999861   0.00160861 -0.000186994 
         -50      3.73025     0.999892   0.00160885 -0.000186829 
         -50      3.78967     0.999916   0.00160904 -0.000186663 
         -50      3.84961     0.999934   0.00160919 -0.000186496 
         -50      3.90996     0.999947   0.00160932 -0.000186327 
         -50      3.97084     0.999957   0.00160942 -0.000186157 
         -50      4.03214     0.999964   0.00160951 -0.000185986 
         -50      4.09395     0.999969   0.00160958 -0.000185813 
         -50      4.15624     0.999973   0.00160964 -0.000185639 
         -50      4.21895     0.999976    0.0016097 -0.000185464 
         -50      4.28217     0.999978   0.00160975 -0.000185287 
         -50      4.34582     0.999979    0.0016098  -0.00018511 
         -50      4.40998      0.99998   0.00160984 -0.000184931 
         -50      4.47457     0.999981   0.00160988 -0.000184751 
         -50      4.53968     0.999981   0.00160992 -0.000184569 
         -50      4.60525     0.999981   0.00160996 -0.000184386 
         -50      4.67125     0.999982      0.00161 -0.000184202 
         -50      4.73777     0.999982   0.00161004 -0.000184017 
         -50       4.8047     0.999982   0.00161008  -0.00018383 
         -50      4.87216     0.999982   0.00161012 -0.000183642 
         -50      4.94003     0.999982   0.00161016 -0.000183452 
         -50      5.00843     0.999982    0.0016102 -0.000183262 
         -50      5.07724     0.999982   0.00161024  -0.00018307 
         -50      5.14658     0.999982   0.00161028 -0.000182876 
         -50      5.21639     0.999982   0.00161032 -0.000182682 
         -50      5.28661     0.999982   0.00161036 -0.000182486 
         -50      5.35736     0.999982    0.0016104 -0.000182289 
         -50      5.42852     0.999982   0.00161044 -0.000182091 
         -50      5.50021     0.999982   0.00161048 -0.000181891 
         -50      5.57231     0.999982   0.00161052  -0.00018169 
         -50      5.64493     0.999982   0.00161057 -0.000181488 
         -50      5.71803     0.999982   0.00161061 -0.000181284 
         -50      5.79154     0.999982   0.00161065 -0.000181079 
         -50      5.86558     0.999982   0.00161069 -0.000180872 
         -50      5.94003     0.999982   0.00161073 -0.000180665 
         -50      6.01501     0.999983   0.00161078 -0.000180457 
         -50       6.0904     0.999983   0.00161082 -0.000180246 
         -50      6.16632     0.999983   0.00161086 -0.000180034 
         -50      6.24271     0.999983    0.0016109 -0.000179821 
         -50       6.3195     0.999983   0.00161095 -0.000179607 
         -50      6.39683     0.999983   0.00161099 -0.000179392 
         -50      6.47457     0.999983   0.00161103 -0.000179176 
         -50      6.55284     0.999983   0.00161108 -0.000178958 
         -50      6.63152     0.999983   0.00161112 -0.000178739 
         -50      6.71073     0.999983   0.00161116 -0.000178519 
         -50      6.79034     0.999983   0.00161121 -0.000178298 
         -50      6.87049     0.999983   0.00161125 -0.000178075 
         -50      6.95111     0.999983    0.0016113 -0.000177851 
         -50      7.03214     0.999983   0.00161134 -0.000177626 
         -50       7.1137     0.999983   0.00161139 -0.000177399 
         -50      7.19566     0.999983   0.00161143 -0.000177171 
         -50      7.27816     0.999983   0.00161148 -0.000176941 
         -50      7.36106     0.999983   0.00161152 -0.000176711 
         -50      7.44451     0.999983   0.00161157 -0.000176479 
         -50      7.52842     0.999983   0.00161161 -0.000176245 
         -50      7.61273     0.999983   0.00161166 -0.000176011 
         -50      7.69758     0.999983   0.00161171 -0.000175775 
         -50      7.78283     0.999983   0.00161175 -0.000175538 
         -50      7.86862     0.999983    0.0016118   -0.0001753 
         -50      7.95481     0.999983   0.00161184  -0.00017506 
         -50      8.04155     0.999983   0.00161189 -0.000174819 
         -50      8.12868     0.999983   0.00161194 -0.000174577 
         -50      8.21635     0.999984   0.00161198 -0.000174334 
         -50      8.30449     0.999984   0.00161203 -0.000174089 
         -50      8.39303     0.999984   0.00161208 -0.000173843 
         -50      8.48211     0.999984   0.00161213 -0.000173596 
         -50      8.57159     0.999984   0.00161217 -0.000173347 
         -50      8.66161     0.999984   0.00161222 -0.000173097 
         -50      8.75203     0.999984   0.00161227 -0.000172846 
         -50      8.84299     0.999984   0.00161232 -0.000172594 
         -50      8.93443     0.999984   0.00161236  -0.00017234 
         -50      9.02626     0.999984   0.00161241 -0.000172086 
         -50      9.11863     0.999984   0.00161246 -0.000171829 
         -50      9.21139     0.999984   0.00161251 -0.000171572 
         -50      9.30471     0.999984   0.00161256 -0.000171313 
         -50      9.39841     0.999984   0.00161261 -0.000171054 
         -50      9.49267     0.999984   0.00161266 -0.000170793 
         -50      9.58739     0.999984   0.00161271  -0.00017053 
         -50      9.68251     0.999984   0.00161276 -0.000170266 
         -50      9.77817     0.999984    0.0016128     -0.00017 
         -50      9.87422     0.999984   0.00161285 -0.000169734 
         -50      9.97083     0.999984    0.0016129 -0.000169467 
         -50      10.0678     0.999984   0.00161295 -0.000169198 
         -50      10.1654     0.999984     0.001613 -0.000168928 
         -50      10.2633     0.999984   0.00161305 -0.000168657 
         -50      10.3618     0.999984    0.0016131 -0.000168385 
         -50      10.4607     0.999985   0.00161315 -0.000168111 
         -50      10.5601     0.999985    0.0016132 -0.000167835 
         -50        10.66     0.999985   0.00161325 -0.000167559 
         -50      10.7603     0.999985    0.0016133 -0.000167281 
         -50      10.8611     0.999985   0.00161335 -0.000167001 
         -50      10.9623     0.999985   0.00161341 -0.000166721 
         -50      11.0641     0.999985   0.00161346 -0.000166439 
         -50      11.1663     0.999985   0.00161351 -0.000166156 
         -50       11.269     0.999985   0.00161356 -0.000165872 
         -50      11.3721     0.999985   0.00161361 -0.000165587 
         -50      11.4757     0.999985   0.00161366 -0.000165301 
         -50      11.5798     0.999985   0.00161372 -0.000165013 
         -50      11.6844     0.999985   0.00161377 -0.000164724 
         -50      11.7894     0.999985   0.00161382 -0.000164434 
         -50       11.895     0.999985   0.00161387 -0.000164142 
         -50      12.0009     0.999985   0.00161392 -0.000163849 
         -50      12.1073     0.999985   0.00161397 -0.000163555 
         -50      12.2142     0.999985   0.00161403  -0.00016326 
         -50      12.3216     0.999985   0.00161408 -0.000162963 
         -50      12.4294     0.999985   0.00161413 -0.000162665 
         -50      12.5378     0.999985   0.00161418 -0.000162366 
         -50      12.6465     0.999985   0.00161423 -0.000162066 
         -50      12.7558     0.999985   0.00161429 -0.000161764 
         -50      12.8656     0.999986   0.00161434 -0.000161461 
         -50      12.9757     0.999986   0.00161439 -0.000161158 
         -50      13.0864     0.999986   0.00161445 -0.000160852 
         -50      13.1975     0.999986    0.0016145 -0.000160546 
         -50      13.3092     0.999986   0.00161455 -0.000160238 
         -50      13.4212     0.999986   0.00161461 -0.000159929 
         -50      13.5338     0.999986   0.00161466 -0.000159618 
         -50      13.6468     0.999986   0.00161471 -0.000159304 
         -50      13.7603     0.999986   0.00161477 -0.000158991 
         -50      13.8743     0.999986   0.00161482 -0.000158676 
         -50      13.9886     0.999986   0.00161487 -0.000158361 
         -50      14.1036     0.999986   0.00161492 -0.000158044 
         -50      14.2189     0.999986   0.00161498 -0.000157726 
         -50      14.3348     0.999986   0.00161503 -0.000157408 
         -50       14.451     0.999986   0.00161508 -0.000157089 
         -50      14.5678     0.999986   0.00161514 -0.000156767 
         -50      14.6851     0.999986   0.00161519 -0.000156445 
         -50      14.8028     0.999986   0.00161524 -0.000156121 
         -50       14.921     0.999986    0.0016153 -0.000155796 
         -50      15.0396     0.999986   0.00161536 -0.000155469 
         -50      15.1588     0.999986   0.00161541 -0.000155142 
         -50      15.2783     0.999986   0.00161547 -0.000154813 
         -50      15.3984     0.999986   0.00161552 -0.000154483 
         -50       15.519     0.999987   0.00161557 -0.000154151 
         -50        15.64     0.999987   0.00161562 -0.000153819 
         -50      15.7615     0.999987   0.00161568 -0.000153485 
         -50      15.8834     0.999987   0.00161573  -0.00015315 
         -50      16.0058     0.999987   0.00161579 -0.000152813 
         -50      16.1286     0.999987   0.00161585 -0.000152475 
         -50       16.252     0.999987    0.0016159 -0.000152135 
         -50      16.3759     0.999987   0.00161596 -0.000151794 
         -50      16.5002     0.999987     0.001616 -0.000151452 
         -50       16.625     0.999987   0.00161606  -0.00015111 
         -50      16.7501     0.999987   0.00161612 -0.000150768 
         -50      16.8759     0.999987   0.00161617 -0.000150421 
         -50       17.002     0.999987   0.00161622 -0.000150074 
         -50      17.1287     0.999987   0.00161628 -0.000149726 
         -50      17.2557     0.999987   0.00161634 -0.000149378 
         -50      17.3834     0.999987   0.00161639 -0.000149028 
         -50      17.5115     0.999987   0.00161644 -0.000148677 
         -50      17.6399     0.999987    0.0016165 -0.000148325 
         -50       17.769     0.999987   0.00161655  -0.00014797 
         -50      17.8984     0.999987    0.0016166 -0.000147616 
         -50      18.0284     0.999987   0.00161666 -0.000147261 
         -50      18.1587     0.999987   0.00161672 -0.000146904 
         -50      18.2896     0.999988   0.00161678 -0.000146545 
         -50       18.421     0.999988   0.00161684 -0.000146184 
         -50      18.5528     0.999988   0.00161689 -0.000145822 
         -50      18.6851     0.999988   0.00161694 -0.000145459 
         -50      18.8178     0.999988   0.00161699 -0.000145095 
         -50      18.9511     0.999988   0.00161705 -0.000144729 
         -50      19.0847     0.999988    0.0016171 -0.000144363 
         -50      19.2189     0.999988   0.00161716 -0.000143995 
         -50      19.3535     0.999988   0.00161722 -0.000143627 
         -50      19.4886     0.999988   0.00161728 -0.000143258 
         -50      19.6242     0.999988   0.00161733 -0.000142887 
         -50      19.7602     0.999988   0.00161738 -0.000142516 
         -50      19.8968     0.999988   0.00161743 -0.000142143 
         -50      20.0337     0.999988   0.00161748 -0.000141771 
         -50      20.1712     0.999988   0.00161754 -0.000141398 
         -50      20.3091     0.999988   0.00161759 -0.000141019 
         -50      20.4475     0.999988   0.00161765  -0.00014064 
         -50      20.5864     0.999988   0.00161771 -0.000140261 
         -50      20.7257     0.999988   0.00161777  -0.00013988 
         -50      20.8655     0.999988   0.00161783 -0.000139498 
         -50      21.0058     0.999988   0.00161788 -0.000139116 
         -50      21.1465     0.999989   0.00161794 -0.000138732 
         -50      21.2877     0.999989   0.00161799 -0.000138347 
         -50      21.4294     0.999989   0.00161804 -0.000137961 
         -50      21.5716     0.999989    0.0016181 -0.000137573 
         -50      21.7142     0.999989   0.00161815 -0.000137184 
         -50      21.8573     0.999989   0.00161821 -0.000136793 
         -50      22.0008     0.999989   0.00161826 -0.000136401 
         -50      22.1449     0.999989   0.00161832 -0.000136007 
         -50      22.2893     0.999989   0.00161838 -0.000135612 
         -50      22.4344     0.999989   0.00161843 -0.000135218 
         -50      22.5797     0.999989   0.00161846 -0.000134827 
         -50      22.7257     0.999989   0.00161854 -0.000134423 
         -50      22.8721     0.999989   0.00161861 -0.000134023 
         -50      23.0189     0.999989   0.00161866 -0.000133623 
         -50      23.1663     0.999989   0.00161871 -0.000133223 
         -50       23.314     0.999989   0.00161875 -0.000132822 
         -50      23.4623     0.999989    0.0016188 -0.000132419 
         -50       23.611     0.999989   0.00161886 -0.000132016 
         -50      23.7602     0.999989   0.00161891 -0.000131612 
         -50        23.91     0.999989   0.00161896 -0.000131201 
         -50        24.06     0.999989   0.00161902 -0.000130787 
         -50      24.2107     0.999989   0.00161908 -0.000130373 
         -50      24.3617     0.999989   0.00161914  -0.00012996 
         -50      24.5133      0.99999    0.0016192 -0.000129547 
         -50      24.6653      0.99999   0.00161926 -0.000129134 
         -50      24.8178      0.99999   0.00161931  -0.00012872 
         -50      24.9708      0.99999   0.00161936 -0.000128305 
         -50      25.1242      0.99999   0.00161941  -0.00012789 
         -50      25.2781      0.99999   0.00161946 -0.000127473 
         -50      25.4324      0.99999   0.00161951 -0.000127056 
         -50      25.5873      0.99999   0.00161957 -0.000126637 
         -50      25.7426      0.99999   0.00161962 -0.000126216 
         -50      25.8984      0.99999   0.00161968 -0.000125794 
         -50      26.0546      0.99999   0.00161974 -0.000125371 
         -50      26.2114      0.99999   0.00161979 -0.000124946 
         -50      26.3686      0.99999   0.00161985 -0.000124519 
         -50      26.5262      0.99999    0.0016199 -0.000124092 
         -50      26.6844      0.99999   0.00161994 -0.000123662 
         -50      26.8429      0.99999      0.00162 -0.000123231 
         -50       27.002      0.99999   0.00162005 -0.000122797 
         -50      27.1615      0.99999   0.00162013 -0.000122361 
         -50      27.3216      0.99999   0.00162018 -0.000121928 
         -50      27.4821      0.99999   0.00162023 -0.000121496 
         -50       27.643      0.99999   0.00162022 -0.000121064 
         -50      27.8044      0.99999   0.00162033 -0.000120621 
         -50      27.9663     0.999991    0.0016204 -0.000120165 
         -50      28.1287     0.999991   0.00162043 -0.000119735 
         -50      28.2914     0.999991   0.00162047 -0.000119302 
         -50      28.4548     0.999991   0.00162052 -0.000118867 
         -50      28.6185     0.999991   0.00162058 -0.000118428 
         -50      28.7828     0.999991   0.00162064 -0.000117985 
         -50      28.9475     0.999991    0.0016207 -0.000117539 
         -50      29.1126     0.999991   0.00162075 -0.000117091 
         -50      29.2784     0.999991    0.0016208  -0.00011664 
         -50      29.4444     0.999991   0.00162085 -0.000116188 
         -50       29.611     0.999991    0.0016209 -0.000115735 
         -50       29.778     0.999991   0.00162095 -0.000115281 
         -50      29.9456     0.999991     0.001621 -0.000114826 
         -50      30.1137     0.999991   0.00162105 -0.000114371 
         -50      30.2821     0.999991    0.0016211 -0.000113916 
         -50      30.4511     0.999991   0.00162116 -0.000113461 
         -50      30.6204     0.999991   0.00162121 -0.000113005 
         -50      30.7903     0.999991   0.00162126 -0.000112549 
         -50      30.9606     0.999991   0.00162131 -0.000112091 
         -50      31.1315     0.999991   0.00162136 -0.000111631 
         -50      31.3028     0.999991   0.00162141  -0.00011117 
         -50      31.4745     0.999991   0.00162146 -0.000110706 
         -50      31.6468     0.999991   0.00162151 -0.000110241 
         -50      31.8194     0.999991   0.00162156 -0.000109774 
         -50      31.9926     0.999992   0.00162162 -0.000109308 
         -50      32.1662     0.999992   0.00162168 -0.000108837 
         -50      32.3404     0.999992   0.00162173 -0.000108366 
         -50      32.5149     0.999992   0.00162178 -0.000107896 
         -50        32.69     0.999992   0.00162183 -0.000107425 
         -50      32.8655     0.999992   0.00162188 -0.000106953 
         -50      33.0414     0.999992   0.00162193 -0.000106479 
         -50       33.218     0.999992   0.00162197 -0.000106003 
         -50      33.3948     0.999992   0.00162202 -0.000105526 
         -50      33.5723     0.999992   0.00162206 -0.000105047 
         -50        33.75     0.999992   0.00162211 -0.000104567 
         -50      33.9284     0.999992   0.00162215 -0.000104086 
         -50      34.1073     0.999992    0.0016222 -0.000103605 
         -50      34.2865     0.999992   0.00162226 -0.000103123 
         -50      34.4663     0.999992   0.00162231 -0.000102641 
         -50      34.6465     0.999992   0.00162236 -0.000102159 
         -50      34.8272     0.999992   0.00162242 -0.000101675 
         -50      35.0083     0.999992   0.00162247 -0.000101192 
         -50        35.19     0.999992   0.00162252 -0.000100706 
         -50      35.3721     0.999992   0.00162257 -0.000100219 
         -50      35.5546     0.999992   0.00162261 -9.97307e-05 
         -50      35.7377     0.999993   0.00162264 -9.92398e-05 
         -50      35.9211     0.999993   0.00162265 -9.87475e-05 
         -50      36.1052     0.999993   0.00162271 -9.82524e-05 
         -50      36.2895     0.999993   0.00162278 -9.77563e-05 
         -50      36.4745     0.999993   0.00162284 -9.72587e-05 
         -50      36.6598     0.999993   0.00162289 -9.67603e-05 
         -50      36.8457     0.999993   0.00162294 -9.62603e-05 
         -50      37.0321     0.999993   0.00162299 -9.57593e-05 
         -50      37.2188     0.999993   0.00162304 -9.52579e-05 
         -50      37.4062     0.999993   0.00162308 -9.47556e-05 
         -50      37.5938     0.999993   0.00162312 -9.42534e-05 
         -50      37.7821     0.999993   0.00162316 -9.37504e-05 
         -50      37.9707     0.999993   0.00162319 -9.32473e-05 
         -50      38.1599     0.999993   0.00162323 -9.27422e-05 
         -50      38.3496     0.999993   0.00162329 -9.22339e-05 
         -50      38.5396     0.999993    0.0016234   -9.172e-05 
         -50      38.7302     0.999993   0.00162337 -9.12138e-05 
         -50      38.9211     0.999993   0.00162341 -9.07044e-05 
         -50      39.1127     0.999993   0.00162348 -9.01912e-05 
         -50      39.3046     0.999993   0.00162354 -8.96766e-05 
         -50      39.4971     0.999993   0.00162358 -8.91606e-05 
         -50      39.6899     0.999994   0.00162361 -8.86444e-05 
         -50      39.8833     0.999994   0.00162364 -8.81273e-05 
         -50      40.0772     0.999994   0.00162367 -8.76098e-05 
         -50      40.2714     0.999994   0.00162371 -8.70919e-05 
         -50      40.4663     0.999994   0.00162376 -8.65727e-05 
         -50      40.6615     0.999994   0.00162382 -8.60528e-05 
         -50      40.8573     0.999994   0.00162388 -8.55312e-05 
         -50      41.0534     0.999994   0.00162394 -8.50086e-05 
         -50      41.2501     0.999994   0.00162399 -8.44843e-05 
         -50      41.4473     0.999994   0.00162403  -8.3959e-05 
         -50      41.6448     0.999994   0.00162406 -8.34332e-05 
         -50      41.8429     0.999994   0.00162408 -8.29065e-05 
         -50      42.0414     0.999994   0.00162411 -8.23755e-05 
         -50      42.2405     0.999994   0.00162414 -8.18398e-05 
         -50      42.4399     0.999994   0.00162418  -8.1304e-05 
         -50      42.6399     0.999994   0.00162424  -8.0767e-05 
         -50      42.8404     0.999994   0.00162429 -8.02295e-05 
         -50      43.0412     0.999994   0.00162435 -7.96927e-05 
         -50      43.2426     0.999994   0.00162441 -7.91562e-05 
         -50      43.4444     0.999994   0.00162445 -7.86208e-05 
         -50      43.6467     0.999994   0.00162447 -7.80851e-05 
         -50      43.8494     0.999994   0.00162447 -7.75472e-05 
         -50      44.0527     0.999995    0.0016245 -7.70014e-05 
         -50      44.2563     0.999995   0.00162462 -7.64399e-05 
         -50      44.4606     0.999995    0.0016246 -7.59314e-05 
         -50      44.6653     0.999995   0.00162462  -7.5406e-05 
         -50      44.8704     0.999995   0.00162468 -7.48671e-05 
         -50       45.076     0.999995   0.00162475 -7.43128e-05 
         -50       45.282     0.999995   0.00162479 -7.37373e-05 
         -50      45.4886     0.999995   0.00162475 -7.31266e-05 
         -50      45.6955     0.999995    0.0016249 -7.26119e-05 
         -50       45.903     0.999995   0.00162497 -7.20785e-05 
         -50      46.1111     0.999995   0.00162499 -7.15297e-05 
         -50      46.3194     0.999995   0.00162498 -7.09718e-05 
         -50      46.5283     0.999995   0.00162497 -7.04089e-05 
         -50      46.7376     0.999995   0.00162497 -6.98451e-05 
         -50      46.9475     0.999995     0.001625 -6.92818e-05 
         -50      47.1577     0.999995   0.00162505  -6.8721e-05 
         -50      47.3685     0.999995   0.00162511 -6.81622e-05 
         -50      47.5798     0.999995   0.00162517 -6.76055e-05 
         -50      47.7914     0.999995   0.00162524 -6.70503e-05 
         -50      48.0037     0.999995   0.00162529 -6.64946e-05 