Variables = x, y, u, v, p

Zone, I=800, F=POINT
         750            0           -0           -0 -2.55486e-05 
         750     0.000234  7.44531e-05  4.00301e-12 -2.55486e-05 
         750     0.000939  0.000298767  6.44594e-11 -2.55485e-05 
         750     0.002113  0.000672305  3.26403e-10 -2.55483e-05 
         750     0.003759   0.00119602    1.033e-09 -2.55481e-05 
         750     0.005872   0.00186833  2.52074e-09 -2.55478e-05 
         750     0.008457   0.00269081  5.22863e-09 -2.55474e-05 
         750      0.01151    0.0036622  9.68514e-09 -2.55469e-05 
         750     0.015036   0.00478409   1.6528e-08 -2.55464e-05 
         750     0.019031    0.0060552  2.64776e-08 -2.55458e-05 
         750     0.023493   0.00747491   4.0349e-08 -2.55452e-05 
         750     0.028429   0.00904543  5.90852e-08 -2.55445e-05 
         750     0.033831    0.0107642   8.3673e-08 -2.55437e-05 
         750     0.039706    0.0126335  1.15257e-07 -2.55428e-05 
         750     0.046047    0.0146511  1.55009e-07 -2.55419e-05 
         750     0.052863    0.0168198  2.04296e-07 -2.55409e-05 
         750      0.06015    0.0191383  2.64501e-07 -2.55398e-05 
         750       0.0679    0.0216042   3.3705e-07 -2.55387e-05 
         750     0.076126    0.0242215  4.23663e-07 -2.55375e-05 
         750     0.084816    0.0269864  5.25908e-07 -2.55362e-05 
         750     0.093982    0.0299028  6.45718e-07 -2.55349e-05 
         750     0.103611    0.0329665  7.84809e-07 -2.55335e-05 
         750     0.113718    0.0361822  9.45387e-07  -2.5532e-05 
         750     0.124286    0.0395446  1.12926e-06 -2.55305e-05 
         750     0.135333    0.0430594  1.33892e-06 -2.55288e-05 
         750      0.14685    0.0467236  1.57649e-06 -2.55272e-05 
         750     0.158827    0.0505342  1.84412e-06 -2.55254e-05 
         750     0.171284    0.0544973  2.14472e-06 -2.55236e-05 
         750     0.184201    0.0586067  2.48037e-06 -2.55217e-05 
         750     0.197599     0.062869  2.85428e-06 -2.55197e-05 
         750     0.211455    0.0672769  3.26855e-06 -2.55177e-05 
         750     0.225792    0.0718375  3.72673e-06 -2.55156e-05 
         750       0.2406    0.0765477  4.23148e-06 -2.55134e-05 
         750     0.255865     0.081403  4.78532e-06 -2.55112e-05 
         750     0.271613    0.0864116  5.39234e-06 -2.55089e-05 
         750     0.287818    0.0915651  6.05475e-06 -2.55065e-05 
         750     0.304506    0.0968716  6.77694e-06 -2.55041e-05 
         750      0.32165     0.102323  7.56116e-06 -2.55016e-05 
         750     0.339278     0.107927  8.41218e-06  -2.5499e-05 
         750     0.357377      0.11368  9.33304e-06 -2.54963e-05 
         750      0.37593     0.119576  1.03265e-05 -2.54936e-05 
         750     0.394968     0.125625   1.1398e-05 -2.54908e-05 
         750     0.414461     0.131818  1.25496e-05  -2.5488e-05 
         750      0.43444     0.138163  1.37872e-05  -2.5485e-05 
         750     0.454872     0.144651  1.51128e-05  -2.5482e-05 
         750     0.475791     0.151291  1.65327e-05  -2.5479e-05 
         750     0.497163     0.158072  1.80486e-05 -2.54758e-05 
         750     0.519021     0.165005  1.96673e-05 -2.54726e-05 
         750      0.54135     0.172084  2.13921e-05 -2.54693e-05 
         750     0.564131     0.179303  2.32257e-05  -2.5466e-05 
         750       0.5874     0.186673  2.51756e-05 -2.54625e-05 
         750     0.611121     0.194182  2.72433e-05  -2.5459e-05 
         750      0.63533      0.20184  2.94364e-05 -2.54554e-05 
         750      0.65999     0.209635  3.17564e-05 -2.54518e-05 
         750     0.685139     0.217578  3.42113e-05 -2.54481e-05 
         750     0.710759     0.225663  3.68044e-05 -2.54443e-05 
         750     0.736828     0.233882  3.95381e-05 -2.54404e-05 
         750     0.763387     0.242247  4.24214e-05 -2.54364e-05 
         750     0.790396     0.250744  4.54548e-05 -2.54324e-05 
         750     0.817896     0.259385  4.86477e-05 -2.54283e-05 
         750     0.845843     0.268154  5.19998e-05 -2.54241e-05 
         750     0.874283     0.277065  5.55216e-05 -2.54198e-05 
         750      0.90317     0.286101   5.9212e-05 -2.54154e-05 
         750     0.932551     0.295276  6.30818e-05  -2.5411e-05 
         750     0.962401      0.30458  6.71327e-05 -2.54064e-05 
         750     0.992697     0.314004   7.1366e-05 -2.54018e-05 
         750      1.02349     0.323561  7.57932e-05 -2.53971e-05 
         750      1.05472     0.333233  8.04115e-05 -2.53923e-05 
         750      1.08645     0.343033  8.52329e-05 -2.53873e-05 
         750      1.11863     0.352944   9.0254e-05 -2.53823e-05 
         750       1.1513     0.362977  9.54869e-05 -2.53772e-05 
         750      1.18444     0.373122  0.000100932  -2.5372e-05 
         750      1.21802     0.383369  0.000106588 -2.53667e-05 
         750      1.25211     0.393729  0.000112468 -2.53613e-05 
         750      1.28663     0.404182  0.000118565 -2.53558e-05 
         750      1.32165     0.414742  0.000124894 -2.53501e-05 
         750      1.35712     0.425387  0.000131446 -2.53443e-05 
         750      1.39308     0.436131  0.000138235 -2.53385e-05 
         750      1.42951      0.44696  0.000145258 -2.53324e-05 
         750      1.46638      0.45786  0.000152511 -2.53263e-05 
         750      1.50375     0.468844  0.000160007   -2.532e-05 
         750      1.54156     0.479889  0.000167736 -2.53136e-05 
         750      1.57987     0.491007   0.00017571  -2.5307e-05 
         750      1.61863     0.502175  0.000183917 -2.53003e-05 
         750      1.65788     0.513404  0.000192371 -2.52934e-05 
         750      1.69757     0.524669  0.000201056 -2.52864e-05 
         750      1.73776     0.535982  0.000209987 -2.52792e-05 
         750      1.77842     0.547328  0.000219153 -2.52718e-05 
         750      1.81952     0.558688  0.000228545 -2.52643e-05 
         750      1.86113     0.570076  0.000238176 -2.52566e-05 
         750      1.90316     0.581463  0.000248025 -2.52486e-05 
         750      1.94571      0.59286  0.000258105 -2.52405e-05 
         750      1.98869     0.604241  0.000268394 -2.52322e-05 
         750      2.03217     0.615615  0.000278903 -2.52236e-05 
         750      2.07612     0.626965  0.000289617 -2.52149e-05 
         750      2.12051     0.638271   0.00030052 -2.52059e-05 
         750       2.1654     0.649544  0.000311622 -2.51967e-05 
         750      2.21073     0.660754  0.000322895 -2.51872e-05 
         750      2.25656     0.671912  0.000334349 -2.51775e-05 
         750      2.30283     0.682989  0.000345954 -2.51675e-05 
         750       2.3496     0.693992  0.000357717 -2.51573e-05 
         750      2.39685     0.704903  0.000369618 -2.51468e-05 
         750      2.44452     0.715704  0.000381634  -2.5136e-05 
         750      2.49271       0.7264   0.00039377 -2.51249e-05 
         750      2.54132     0.736966  0.000405993 -2.51136e-05 
         750      2.59044     0.747409  0.000418307 -2.51019e-05 
         750         2.64       0.7577  0.000430677 -2.50899e-05 
         750      2.69006     0.767847  0.000443106 -2.50776e-05 
         750      2.74056     0.777825  0.000455557  -2.5065e-05 
         750      2.79156     0.787638  0.000468033 -2.50521e-05 
         750      2.84304     0.797271  0.000480506 -2.50388e-05 
         750      2.89494     0.806706  0.000492947 -2.50252e-05 
         750      2.94735      0.81595  0.000505359 -2.50112e-05 
         750       3.0002     0.824981  0.000517701 -2.49969e-05 
         750      3.05355     0.833803  0.000529975 -2.49823e-05 
         750      3.10733     0.842396  0.000542142 -2.49673e-05 
         750      3.16163     0.850767  0.000554202 -2.49519e-05 
         750      3.21639     0.858903  0.000566126 -2.49361e-05 
         750      3.27158      0.86679  0.000577887 -2.49201e-05 
         750      3.32729     0.874437  0.000589484 -2.49036e-05 
         750      3.38342     0.881827  0.000600882 -2.48868e-05 
         750      3.44007     0.888968   0.00061208 -2.48696e-05 
         750      3.49714     0.895846  0.000623045  -2.4852e-05 
         750      3.55472     0.902467  0.000633777 -2.48341e-05 
         750      3.61273     0.908822  0.000644244 -2.48158e-05 
         750      3.67125     0.914918  0.000654449 -2.47971e-05 
         750      3.73025      0.92075   0.00066437 -2.47781e-05 
         750      3.78967     0.926314  0.000673988 -2.47587e-05 
         750      3.84961     0.931621  0.000683305  -2.4739e-05 
         750      3.90996     0.936664  0.000692299  -2.4719e-05 
         750      3.97084     0.941454  0.000700975 -2.46985e-05 
         750      4.03214     0.945986  0.000709312 -2.46778e-05 
         750      4.09395     0.950273  0.000717319 -2.46566e-05 
         750      4.15624     0.954314  0.000724982 -2.46352e-05 
         750      4.21895     0.958113  0.000732296 -2.46134e-05 
         750      4.28217     0.961681  0.000739269 -2.45913e-05 
         750      4.34582      0.96502   0.00074589 -2.45689e-05 
         750      4.40998     0.968141  0.000752173 -2.45462e-05 
         750      4.47457     0.971047  0.000758108 -2.45232e-05 
         750      4.53968     0.973751   0.00076371 -2.44999e-05 
         750      4.60525     0.976257   0.00076898 -2.44763e-05 
         750      4.67125     0.978574  0.000773919 -2.44524e-05 
         750      4.73777     0.980712  0.000778545 -2.44283e-05 
         750       4.8047     0.982677  0.000782856 -2.44039e-05 
         750      4.87216     0.984481  0.000786871 -2.43792e-05 
         750      4.94003     0.986131  0.000790593 -2.43543e-05 
         750      5.00843     0.987637  0.000794038 -2.43291e-05 
         750      5.07724     0.989006  0.000797214 -2.43037e-05 
         750      5.14658     0.990249  0.000800136 -2.42781e-05 
         750      5.21639     0.991373  0.000802815 -2.42522e-05 
         750      5.28661     0.992385  0.000805261 -2.42261e-05 
         750      5.35736     0.993297  0.000807492 -2.41997e-05 
         750      5.42852     0.994112  0.000809517 -2.41732e-05 
         750      5.50021     0.994842  0.000811352 -2.41464e-05 
         750      5.57231     0.995491  0.000813006 -2.41194e-05 
         750      5.64493     0.996068  0.000814495 -2.40923e-05 
         750      5.71803     0.996578   0.00081583 -2.40649e-05 
         750      5.79154     0.997028  0.000817022 -2.40372e-05 
         750      5.86558     0.997423  0.000818084 -2.40095e-05 
         750      5.94003      0.99777  0.000819025 -2.39815e-05 
         750      6.01501     0.998072  0.000819859 -2.39533e-05 
         750       6.0904     0.998335  0.000820593 -2.39249e-05 
         750      6.16632     0.998563  0.000821237 -2.38963e-05 
         750      6.24271      0.99876  0.000821802 -2.38675e-05 
         750       6.3195     0.998929  0.000822293 -2.38385e-05 
         750      6.39683     0.999074   0.00082272 -2.38094e-05 
         750      6.47457     0.999198  0.000823089   -2.378e-05 
         750      6.55284     0.999304  0.000823408 -2.37504e-05 
         750      6.63152     0.999393  0.000823682 -2.37207e-05 
         750      6.71073     0.999469  0.000823916 -2.36908e-05 
         750      6.79034     0.999533  0.000824116 -2.36608e-05 
         750      6.87049     0.999586  0.000824286 -2.36305e-05 
         750      6.95111      0.99963   0.00082443    -2.36e-05 
         750      7.03214     0.999667  0.000824552 -2.35694e-05 
         750       7.1137     0.999698  0.000824654 -2.35386e-05 
         750      7.19566     0.999723   0.00082474 -2.35076e-05 
         750      7.27816     0.999744  0.000824811 -2.34765e-05 
         750      7.36106     0.999761  0.000824871 -2.34452e-05 
         750      7.44451     0.999775  0.000824921 -2.34137e-05 
         750      7.52842     0.999786  0.000824963  -2.3382e-05 
         750      7.61273     0.999795  0.000824997 -2.33502e-05 
         750      7.69758     0.999803  0.000825025 -2.33182e-05 
         750      7.78283     0.999809  0.000825049  -2.3286e-05 
         750      7.86862     0.999814  0.000825069 -2.32535e-05 
         750      7.95481     0.999817  0.000825086 -2.32209e-05 
         750      8.04155      0.99982    0.0008251 -2.31882e-05 
         750      8.12868     0.999823  0.000825111 -2.31552e-05 
         750      8.21635     0.999825  0.000825121 -2.31221e-05 
         750      8.30449     0.999826   0.00082513 -2.30888e-05 
         750      8.39303     0.999828  0.000825137 -2.30554e-05 
         750      8.48211     0.999829  0.000825144 -2.30218e-05 
         750      8.57159      0.99983   0.00082515  -2.2988e-05 
         750      8.66161      0.99983  0.000825156 -2.29539e-05 
         750      8.75203     0.999831  0.000825161 -2.29197e-05 
         750      8.84299     0.999831  0.000825166 -2.28854e-05 
         750      8.93443     0.999832   0.00082517 -2.28508e-05 
         750      9.02626     0.999832  0.000825174 -2.28161e-05 
         750      9.11863     0.999833  0.000825179 -2.27813e-05 
         750      9.21139     0.999833  0.000825183 -2.27463e-05 
         750      9.30471     0.999833  0.000825187  -2.2711e-05 
         750      9.39841     0.999834  0.000825191 -2.26757e-05 
         750      9.49267     0.999834  0.000825194   -2.264e-05 
         750      9.58739     0.999834  0.000825199 -2.26042e-05 
         750      9.68251     0.999835  0.000825202 -2.25682e-05 
         750      9.77817     0.999835  0.000825206  -2.2532e-05 
         750      9.87422     0.999835   0.00082521 -2.24957e-05 
         750      9.97083     0.999835  0.000825214 -2.24591e-05 
         750      10.0678     0.999836  0.000825218 -2.24224e-05 
         750      10.1654     0.999836  0.000825222 -2.23856e-05 
         750      10.2633     0.999836  0.000825226 -2.23486e-05 
         750      10.3618     0.999837   0.00082523 -2.23114e-05 
         750      10.4607     0.999837  0.000825234 -2.22741e-05 
         750      10.5601     0.999837  0.000825238 -2.22366e-05 
         750        10.66     0.999837  0.000825242 -2.21988e-05 
         750      10.7603     0.999838  0.000825246 -2.21609e-05 
         750      10.8611     0.999838   0.00082525 -2.21227e-05 
         750      10.9623     0.999838  0.000825254 -2.20845e-05 
         750      11.0641     0.999839  0.000825257 -2.20461e-05 
         750      11.1663     0.999839  0.000825262 -2.20073e-05 
         750       11.269     0.999839  0.000825266 -2.19686e-05 
         750      11.3721     0.999839  0.000825269 -2.19298e-05 
         750      11.4757      0.99984  0.000825273 -2.18908e-05 
         750      11.5798      0.99984  0.000825277 -2.18515e-05 
         750      11.6844      0.99984  0.000825281 -2.18121e-05 
         750      11.7894     0.999841  0.000825285 -2.17723e-05 
         750       11.895     0.999841   0.00082529 -2.17323e-05 
         750      12.0009     0.999841  0.000825294 -2.16922e-05 
         750      12.1073     0.999841  0.000825298 -2.16518e-05 
         750      12.2142     0.999842  0.000825302 -2.16114e-05 
         750      12.3216     0.999842  0.000825306 -2.15708e-05 
         750      12.4294     0.999842   0.00082531 -2.15301e-05 
         750      12.5378     0.999843  0.000825314 -2.14892e-05 
         750      12.6465     0.999843  0.000825319 -2.14482e-05 
         750      12.7558     0.999843  0.000825323  -2.1407e-05 
         750      12.8656     0.999844  0.000825327 -2.13656e-05 
         750      12.9757     0.999844  0.000825332  -2.1324e-05 
         750      13.0864     0.999844  0.000825336 -2.12822e-05 
         750      13.1975     0.999845   0.00082534 -2.12402e-05 
         750      13.3092     0.999845  0.000825345  -2.1198e-05 
         750      13.4212     0.999845  0.000825348 -2.11556e-05 
         750      13.5338     0.999845  0.000825352 -2.11129e-05 
         750      13.6468     0.999846  0.000825356 -2.10701e-05 
         750      13.7603     0.999846  0.000825361 -2.10273e-05 
         750      13.8743     0.999846  0.000825366 -2.09842e-05 
         750      13.9886     0.999847   0.00082537  -2.0941e-05 
         750      14.1036     0.999847  0.000825375 -2.08976e-05 
         750      14.2189     0.999847  0.000825379  -2.0854e-05 
         750      14.3348     0.999848  0.000825384   -2.081e-05 
         750       14.451     0.999848  0.000825388 -2.07657e-05 
         750      14.5678     0.999848  0.000825391 -2.07218e-05 
         750      14.6851     0.999849  0.000825395 -2.06775e-05 
         750      14.8028     0.999849  0.000825399  -2.0633e-05 
         750       14.921     0.999849  0.000825404 -2.05884e-05 
         750      15.0396      0.99985  0.000825408 -2.05436e-05 
         750      15.1588      0.99985  0.000825413 -2.04986e-05 
         750      15.2783      0.99985  0.000825418 -2.04535e-05 
         750      15.3984     0.999851  0.000825422 -2.04081e-05 
         750       15.519     0.999851  0.000825427 -2.03625e-05 
         750        15.64     0.999851  0.000825431 -2.03167e-05 
         750      15.7615     0.999852  0.000825435 -2.02707e-05 
         750      15.8834     0.999852   0.00082544 -2.02246e-05 
         750      16.0058     0.999852  0.000825444 -2.01782e-05 
         750      16.1286     0.999853  0.000825449 -2.01318e-05 
         750       16.252     0.999853  0.000825453 -2.00852e-05 
         750      16.3759     0.999853  0.000825458 -2.00384e-05 
         750      16.5002     0.999854  0.000825462 -1.99916e-05 
         750       16.625     0.999854  0.000825467 -1.99446e-05 
         750      16.7501     0.999854  0.000825471 -1.98974e-05 
         750      16.8759     0.999855  0.000825476   -1.985e-05 
         750       17.002     0.999855   0.00082548 -1.98023e-05 
         750      17.1287     0.999855  0.000825484 -1.97545e-05 
         750      17.2557     0.999856  0.000825488 -1.97066e-05 
         750      17.3834     0.999856  0.000825489 -1.96578e-05 
         750      17.5115     0.999856  0.000825496 -1.96086e-05 
         750      17.6399     0.999857  0.000825506 -1.95595e-05 
         750       17.769     0.999857  0.000825511 -1.95107e-05 
         750      17.8984     0.999857  0.000825512 -1.94619e-05 
         750      18.0284     0.999858  0.000825514 -1.94129e-05 
         750      18.1587     0.999858  0.000825517 -1.93639e-05 
         750      18.2896     0.999859  0.000825523 -1.93145e-05 
         750       18.421     0.999859   0.00082553  -1.9265e-05 
         750      18.5528     0.999859  0.000825537 -1.92153e-05 
         750      18.6851      0.99986  0.000825543 -1.91654e-05 
         750      18.8178      0.99986  0.000825547 -1.91154e-05 
         750      18.9511      0.99986   0.00082555 -1.90652e-05 
         750      19.0847     0.999861  0.000825554 -1.90148e-05 
         750      19.2189     0.999861  0.000825558 -1.89641e-05 
         750      19.3535     0.999861  0.000825563 -1.89132e-05 
         750      19.4886     0.999862  0.000825566 -1.88618e-05 
         750      19.6242     0.999862  0.000825568 -1.88102e-05 
         750      19.7602     0.999863  0.000825573 -1.87586e-05 
         750      19.8968     0.999863  0.000825579 -1.87075e-05 
         750      20.0337     0.999863  0.000825581 -1.86566e-05 
         750      20.1712     0.999864  0.000825587 -1.86055e-05 
         750      20.3091     0.999864  0.000825594 -1.85542e-05 
         750      20.4475     0.999864  0.000825599 -1.85024e-05 
         750      20.5864     0.999865  0.000825603 -1.84502e-05 
         750      20.7257     0.999865  0.000825608 -1.83975e-05 
         750      20.8655     0.999866  0.000825612 -1.83444e-05 
         750      21.0058     0.999866  0.000825618 -1.82909e-05 
         750      21.1465     0.999866  0.000825624 -1.82371e-05 
         750      21.2877     0.999867  0.000825631 -1.81833e-05 
         750      21.4294     0.999867  0.000825637 -1.81293e-05 
         750      21.5716     0.999867  0.000825642 -1.80754e-05 
         750      21.7142     0.999868  0.000825645 -1.80215e-05 
         750      21.8573     0.999868  0.000825647 -1.79676e-05 
         750      22.0008     0.999869  0.000825649 -1.79135e-05 
         750      22.1449     0.999869  0.000825651 -1.78592e-05 
         750      22.2893     0.999869  0.000825656 -1.78046e-05 
         750      22.4344      0.99987  0.000825663 -1.77496e-05 
         750      22.5797      0.99987  0.000825671 -1.76948e-05 
         750      22.7257      0.99987  0.000825677 -1.76407e-05 
         750      22.8721     0.999871  0.000825675 -1.75877e-05 
         750      23.0189     0.999871  0.000825688 -1.75285e-05 
         750      23.1663     0.999872  0.000825694 -1.74675e-05 
         750       23.314     0.999872  0.000825705 -1.74162e-05 
         750      23.4623     0.999872  0.000825702 -1.73634e-05 
         750       23.611     0.999873  0.000825688 -1.73075e-05 
         750      23.7602     0.999873  0.000825701 -1.72481e-05 
         750        23.91     0.999874  0.000825718 -1.71907e-05 
         750        24.06     0.999874  0.000825728 -1.71346e-05 
         750      24.2107     0.999874  0.000825731 -1.70787e-05 
         750      24.3617     0.999875  0.000825729 -1.70224e-05 
         750      24.5133     0.999875  0.000825726 -1.69654e-05 
         750      24.6653     0.999876  0.000825725 -1.69078e-05 
         750      24.8178     0.999876  0.000825729 -1.68495e-05 
         750      24.9708     0.999876  0.000825736 -1.67908e-05 
         750      25.1242     0.999877  0.000825747  -1.6732e-05 
         750      25.2781     0.999877  0.000825757 -1.66731e-05 
         750      25.4324     0.999878  0.000825766 -1.66145e-05 
         750      25.5873     0.999878  0.000825772 -1.65561e-05 
         750      25.7426     0.999879  0.000825777 -1.64982e-05 
         750      25.8984     0.999879  0.000825783 -1.64406e-05 
         750      26.0546     0.999879  0.000825792 -1.63831e-05 
         750      26.2114      0.99988   0.00082579 -1.63247e-05 
         750      26.3686      0.99988  0.000825799 -1.62644e-05 
         750      26.5262     0.999881  0.000825798 -1.62043e-05 
         750      26.6844     0.999881  0.000825798 -1.61448e-05 
         750      26.8429     0.999881  0.000825802 -1.60856e-05 
         750       27.002     0.999882  0.000825805 -1.60262e-05 
         750      27.1615     0.999882  0.000825806 -1.59662e-05 
         750      27.3216     0.999883  0.000825807 -1.59054e-05 
         750      27.4821     0.999883  0.000825811 -1.58439e-05 
         750       27.643     0.999883  0.000825821 -1.57824e-05 
         750      27.8044     0.999884  0.000825834 -1.57222e-05 
         750      27.9663     0.999884  0.000825844 -1.56652e-05 
         750      28.1287     0.999885  0.000825853 -1.56013e-05 
         750      28.2914     0.999885  0.000825854 -1.55365e-05 
         750      28.4548     0.999886  0.000825847 -1.54745e-05 
         750      28.6185     0.999886  0.000825844 -1.54142e-05 
         750      28.7828     0.999886  0.000825856 -1.53546e-05 
         750      28.9475     0.999887  0.000825875 -1.52934e-05 
         750      29.1126     0.999887   0.00082586 -1.52263e-05 
         750      29.2784     0.999888  0.000825881 -1.51624e-05 
         750      29.4444     0.999888  0.000825879 -1.50977e-05 
         750       29.611     0.999889  0.000825876 -1.50328e-05 
         750       29.778     0.999889  0.000825879 -1.49689e-05 
         750      29.9456      0.99989  0.000825888 -1.49075e-05 
         750      30.1137      0.99989  0.000825896 -1.48507e-05 
         750      30.2821      0.99989  0.000825909 -1.47851e-05 
         750      30.4511     0.999891  0.000825917   -1.472e-05 
         750      30.6204     0.999891  0.000825918 -1.46567e-05 
         750      30.7903     0.999892  0.000825918 -1.45938e-05 
         750      30.9606     0.999892  0.000825918 -1.45307e-05 
         750      31.1315     0.999893   0.00082592 -1.44667e-05 
         750      31.3028     0.999893  0.000825925  -1.4402e-05 
         750      31.4745     0.999893  0.000825932 -1.43368e-05 
         750      31.6468     0.999894  0.000825939 -1.42712e-05 
         750      31.8194     0.999894  0.000825947 -1.42055e-05 
         750      31.9926     0.999895  0.000825952 -1.41399e-05 
         750      32.1662     0.999895  0.000825956 -1.40744e-05 
         750      32.3404     0.999896  0.000825959 -1.40087e-05 
         750      32.5149     0.999896  0.000825962  -1.3943e-05 
         750        32.69     0.999897  0.000825968  -1.3877e-05 
         750      32.8655     0.999897  0.000825975 -1.38114e-05 
         750      33.0414     0.999898  0.000825981 -1.37452e-05 
         750       33.218     0.999898  0.000825985 -1.36774e-05 
         750      33.3948     0.999898   0.00082599 -1.36096e-05 
         750      33.5723     0.999899  0.000825997 -1.35413e-05 
         750        33.75     0.999899  0.000826004  -1.3473e-05 
         750      33.9284       0.9999  0.000826009 -1.34049e-05 
         750      34.1073       0.9999  0.000826009 -1.33374e-05 
         750      34.2865     0.999901  0.000826008 -1.32708e-05 
         750      34.4663     0.999901  0.000826009 -1.32046e-05 
         750      34.6465     0.999902  0.000826018 -1.31382e-05 
         750      34.8272     0.999902  0.000826031 -1.30705e-05 
         750      35.0083     0.999903  0.000826031 -1.30004e-05 
         750        35.19     0.999903  0.000826042 -1.29328e-05 
         750      35.3721     0.999904   0.00082605 -1.28639e-05 
         750      35.5546     0.999904  0.000826049  -1.2795e-05 
         750      35.7377     0.999904  0.000826047 -1.27271e-05 
         750      35.9211     0.999905  0.000826046 -1.26597e-05 
         750      36.1052     0.999905  0.000826051 -1.25925e-05 
         750      36.2895     0.999906  0.000826062 -1.25251e-05 
         750      36.4745     0.999906  0.000826063 -1.24519e-05 
         750      36.6598     0.999907  0.000826068 -1.23798e-05 
         750      36.8457     0.999907  0.000826076  -1.2308e-05 
         750      37.0321     0.999908  0.000826083 -1.22363e-05 
         750      37.2188     0.999908  0.000826087 -1.21652e-05 
         750      37.4062     0.999909  0.000826087 -1.20948e-05 
         750      37.5938     0.999909  0.000826085 -1.20254e-05 
         750      37.7821      0.99991  0.000826084 -1.19569e-05 
         750      37.9707      0.99991  0.000826085 -1.18888e-05 
         750      38.1599     0.999911  0.000826092 -1.18204e-05 
         750      38.3496     0.999911  0.000826102 -1.17509e-05 
         750      38.5396     0.999912  0.000826113 -1.16793e-05 
         750      38.7302     0.999912  0.000826123  -1.1605e-05 
         750      38.9211     0.999913  0.000826128  -1.1528e-05 
         750      39.1127     0.999913  0.000826124 -1.14486e-05 
         750      39.3046     0.999914  0.000826109 -1.13687e-05 
         750      39.4971     0.999914  0.000826098 -1.12946e-05 
         750      39.6899     0.999915  0.000826119 -1.12263e-05 
         750      39.8833     0.999915  0.000826144 -1.11529e-05 
         750      40.0772     0.999915  0.000826175 -1.10778e-05 
         750      40.2714     0.999916  0.000826191  -1.1004e-05 
         750      40.4663     0.999916  0.000826134 -1.09291e-05 
         750      40.6615     0.999917  0.000826148 -1.08618e-05 
         750      40.8573     0.999918  0.000826157 -1.07928e-05 
         750      41.0534     0.999918  0.000826155 -1.07209e-05 
         750      41.2501     0.999918  0.000826161 -1.06463e-05 
         750      41.4473     0.999919  0.000826173 -1.05698e-05 
         750      41.6448     0.999919  0.000826182 -1.04925e-05 
         750      41.8429      0.99992  0.000826183 -1.04151e-05 
         750      42.0414     0.999921  0.000826179 -1.03382e-05 
         750      42.2405     0.999921  0.000826173 -1.02619e-05 
         750      42.4399     0.999922  0.000826173 -1.01862e-05 
         750      42.6399     0.999922  0.000826182 -1.01109e-05 
         750      42.8404     0.999922  0.000826198 -1.00355e-05 
         750      43.0412     0.999923  0.000826215 -9.96005e-06 
         750      43.2426     0.999923  0.000826226 -9.88424e-06 
         750      43.4444     0.999924  0.000826226 -9.80841e-06 
         750      43.6467     0.999925  0.000826216 -9.73282e-06 
         750      43.8494     0.999925  0.000826206 -9.65798e-06 
         750      44.0527     0.999926   0.00082621 -9.58388e-06 
         750      44.2563     0.999926  0.000826236 -9.50989e-06 
         750      44.4606     0.999927  0.000826261 -9.43356e-06 
         750      44.6653     0.999927  0.000826231 -9.35237e-06 
         750      44.8704     0.999927  0.000826284 -9.27301e-06 
         750       45.076     0.999928  0.000826259 -9.19032e-06 
         750       45.282     0.999929  0.000826233 -9.11121e-06 
         750      45.4886     0.999929  0.000826231  -9.0369e-06 
         750      45.6955      0.99993   0.00082625 -8.96495e-06 
         750       45.903      0.99993  0.000826272 -8.88945e-06 
         750      46.1111     0.999931  0.000826285 -8.80913e-06 
         750      46.3194     0.999931  0.000826294 -8.72558e-06 
         750      46.5283     0.999932  0.000826294 -8.64136e-06 
         750      46.7376     0.999932  0.000826287 -8.55881e-06 
         750      46.9475     0.999933  0.000826279 -8.47848e-06 
         750      47.1577     0.999933  0.000826277 -8.40017e-06 
         750      47.3685     0.999934  0.000826282  -8.3229e-06 
         750      47.5798     0.999934  0.000826295  -8.2457e-06 
         750      47.7914     0.999935  0.000826313 -8.16771e-06 
         750      48.0037     0.999935  0.000826331 -8.08818e-06 