Variables = x, y, u, v, p

Zone, I=800, F=POINT
        1000            0            0            0            0 
        1000     0.000234  6.70751e-05  1.12008e-09            0 
        1000     0.000939   0.00026916  4.49514e-09            0 
        1000     0.002113  0.000605684  1.01197e-08            0 
        1000     0.003759   0.00107751  1.80239e-08           -0 
        1000     0.005872    0.0016832  2.82235e-08           -0 
        1000     0.008457   0.00242419  4.08221e-08           -0 
        1000      0.01151   0.00329934  5.59369e-08           -0 
        1000     0.015036   0.00431008  7.38042e-08            0 
        1000     0.019031   0.00545528  9.47067e-08            0 
        1000     0.023493   0.00673436  1.19039e-07           -0 
        1000     0.028429   0.00814932  1.47358e-07           -0 
        1000     0.033831   0.00969789  1.80253e-07           -0 
        1000     0.039706    0.0113821  2.18517e-07            0 
        1000     0.046047    0.0131999  2.62966e-07            0 
        1000     0.052863    0.0151538  3.14625e-07           -0 
        1000      0.06015    0.0172428  3.74528e-07           -0 
        1000       0.0679    0.0194646  4.43741e-07            0 
        1000     0.076126    0.0218229   5.2359e-07            0 
        1000     0.084816    0.0243142  6.15237e-07           -0 
        1000     0.093982     0.026942  7.20147e-07 -3.80481e-20 
        1000     0.103611    0.0297025  8.39573e-07 -3.43893e-20 
        1000     0.113718    0.0326002  9.75166e-07 -1.04094e-20 
        1000     0.124286      0.03563  1.12823e-06 -3.56644e-22 
        1000     0.135333    0.0387971  1.30062e-06 -6.92939e-21 
        1000      0.14685     0.042099  1.49391e-06 -2.64951e-20 
        1000     0.158827    0.0455328  1.70965e-06 -2.32333e-20 
        1000     0.171284    0.0491042  1.95005e-06 -1.89815e-20 
        1000     0.184201    0.0528075  2.21666e-06            0 
        1000     0.197599    0.0566486  2.51191e-06 -1.14259e-21 
        1000     0.211455     0.060621  2.83739e-06 -1.57188e-20 
        1000     0.225792    0.0647313   3.1958e-06 -1.49791e-20 
        1000       0.2406    0.0689764  3.58917e-06 -1.18785e-20 
        1000     0.255865    0.0733525  4.01941e-06           -0 
        1000     0.271613    0.0778668  4.48965e-06            0 
        1000     0.287818     0.082512  5.00156e-06           -0 
        1000     0.304506    0.0872953   5.5585e-06           -0 
        1000      0.32165     0.092209  6.16213e-06 -2.52865e-21 
        1000     0.339278    0.0972611  6.81609e-06            0 
        1000     0.357377     0.102448  7.52265e-06            0 
        1000      0.37593     0.107764  8.28389e-06           -0 
        1000     0.394968     0.113218   9.1039e-06           -0 
        1000     0.414461     0.118802   9.9843e-06            0 
        1000      0.43444     0.124524  1.09294e-05            0 
        1000     0.454872     0.130375  1.19408e-05            0 
        1000     0.475791     0.136364  1.30231e-05 -4.10344e-22 
        1000     0.497163     0.142482  1.41777e-05           -0 
        1000     0.519021     0.148737  1.54096e-05           -0 
        1000      0.54135     0.155124  1.67213e-05            0 
        1000     0.564131     0.161639  1.81149e-05            0 
        1000       0.5874     0.168291  1.95959e-05           -0 
        1000     0.611121     0.175069  2.11654e-05            0 
        1000      0.63533     0.181984  2.28293e-05 -2.21017e-21 
        1000      0.65999     0.189023  2.45884e-05           -0 
        1000     0.685139     0.196199  2.64492e-05           -0 
        1000     0.710759     0.203504  2.84138e-05           -0 
        1000     0.736828     0.210932  3.04841e-05            0 
        1000     0.763387     0.218494  3.26668e-05 -8.42839e-22 
        1000     0.790396     0.226178  3.49625e-05            0 
        1000     0.817896     0.233994  3.73782e-05           -0 
        1000     0.845843      0.24193  3.99138e-05  2.11287e-23 
        1000     0.874283     0.249997  4.25771e-05           -0 
        1000      0.90317     0.258182  4.53677e-05           -0 
        1000     0.932551     0.266496  4.82936e-05  3.30533e-22 
        1000     0.962401     0.274931  5.13563e-05   2.6745e-22 
        1000     0.992697      0.28348   5.4557e-05            0 
        1000      1.02349     0.292154  5.79044e-05            0 
        1000      1.05472     0.300938  6.13967e-05  1.97326e-21 
        1000      1.08645     0.309845  6.50432e-05           -0 
        1000      1.11863     0.318859  6.88416e-05           -0 
        1000       1.1513     0.327992  7.28015e-05            0 
        1000      1.18444     0.337235  7.69232e-05            0 
        1000      1.21802     0.346578  8.12066e-05  4.94927e-21 
        1000      1.25211     0.356035  8.56622e-05           -0 
        1000      1.28663     0.365586  9.02855e-05           -0 
        1000      1.32165     0.375246  9.50876e-05            0 
        1000      1.35712     0.384995  0.000100064  9.97567e-21 
        1000      1.39308     0.394847  0.000105223           -0 
        1000      1.42951     0.404791  0.000110563           -0 
        1000      1.46638     0.414814  0.000116084  3.57543e-21 
        1000      1.50375     0.424931  0.000121799  1.10903e-20 
        1000      1.54156      0.43512  0.000127699            0 
        1000      1.57987     0.445394  0.000133796  1.67286e-20 
        1000      1.61863     0.455734  0.000140081   1.3402e-20 
        1000      1.65788      0.46615  0.000146565            0 
        1000      1.69757     0.476622  0.000153238            0 
        1000      1.73776     0.487162   0.00016011           -0 
        1000      1.77842     0.497757  0.000167178  2.60551e-21 
        1000      1.81952     0.508392  0.000174435           -0 
        1000      1.86113      0.51908  0.000181893  1.86739e-20 
        1000      1.90316     0.529797   0.00018954  9.98735e-21 
        1000      1.94571     0.540555  0.000197387            0 
        1000      1.98869      0.55133   0.00020542  8.91447e-21 
        1000      2.03217     0.562134  0.000213651  5.85196e-21 
        1000      2.07612     0.572951  0.000222069  6.93837e-21 
        1000      2.12051     0.583766  0.000230665  3.10673e-20 
        1000       2.1654     0.594589  0.000239448           -0 
        1000      2.21073     0.605396    0.0002484  2.47793e-20 
        1000      2.25656     0.616196   0.00025753           -0 
        1000      2.30283     0.626965  0.000266818           -0 
        1000       2.3496     0.637711  0.000276273           -0 
        1000      2.39685      0.64842  0.000285881  2.08054e-20 
        1000      2.44452     0.659073   0.00029563            0 
        1000      2.49271     0.669679  0.000305528  1.86803e-20 
        1000      2.54132     0.680214  0.000315554            0 
        1000      2.59044     0.690686  0.000325715  3.91821e-20 
        1000         2.64     0.701069  0.000335984  2.15223e-20 
        1000      2.69006     0.711371  0.000346361   5.2924e-23 
        1000      2.74056     0.721568  0.000356802  7.00679e-21 
        1000      2.79156     0.731666  0.000367349   6.1172e-20 
        1000      2.84304      0.74165  0.000377974  6.41492e-20 
        1000      2.89494     0.751502  0.000388647  6.55483e-20 
        1000      2.94735      0.76123  0.000399376   6.5773e-20 
        1000       3.0002      0.77081  0.000410131  6.51688e-20 
        1000      3.05355     0.780249  0.000420915  6.40279e-20 
        1000      3.10733     0.789524  0.000431698  6.25941e-20 
        1000      3.16163     0.798641  0.000442484  6.10593e-20 
        1000      3.21639     0.807586  0.000453248  5.95741e-20 
        1000      3.27158     0.816343  0.000463968  5.82474e-20 
        1000      3.32729     0.824921  0.000474646  5.71473e-20 
        1000      3.38342     0.833299  0.000485249  5.63126e-20 
        1000      3.44007     0.841483  0.000495781  5.57496e-20 
        1000      3.49714     0.849455  0.000506209  5.54425e-20 
        1000      3.55472     0.857221  0.000516535  5.53542e-20 
        1000      3.61273     0.864765  0.000526729  5.54333e-20 
        1000      3.67125     0.872093  0.000536793  5.56177e-20 
        1000      3.73025     0.879196  0.000546705  5.58398e-20 
        1000      3.78967     0.886065  0.000556442  5.60303e-20 
        1000      3.84961     0.892707  0.000566009  5.61236e-20 
        1000      3.90996      0.89911  0.000575376  5.60604e-20 
        1000      3.97084     0.905282  0.000584547  5.57914e-20 
        1000      4.03214     0.911213  0.000593495  5.52809e-20 
        1000      4.09395      0.91691  0.000602224  5.45061e-20 
        1000      4.15624     0.922369  0.000610716  5.34613e-20 
        1000      4.21895     0.927587  0.000618955  5.21569e-20 
        1000      4.28217     0.932573  0.000626945  5.06141e-20 
        1000      4.34582     0.937322  0.000634668  4.88695e-20 
        1000      4.40998     0.941843  0.000642129  4.69612e-20 
        1000      4.47457     0.946132   0.00064931   4.4933e-20 
        1000      4.53968     0.950199  0.000656221  4.28136e-20 
        1000      4.60525     0.954045  0.000662852   4.0617e-20 
        1000      4.67125     0.957673  0.000669197   3.8324e-20 
        1000      4.73777     0.961091  0.000675266  3.58598e-20 
        1000       4.8047     0.964302  0.000681048  3.30874e-20 
        1000      4.87216     0.967315   0.00068655  2.97677e-20 
        1000      4.94003     0.970132  0.000691764            0 
        1000      5.00843     0.972765  0.000696702           -0 
        1000      5.07724     0.975215  0.000701363           -0 
        1000      5.14658     0.977494   0.00070576           -0 
        1000      5.21639     0.979608  0.000709894           -0 
        1000      5.28661     0.981561  0.000713769            0 
        1000      5.35736     0.983365  0.000717397            0 
        1000      5.42852     0.985023   0.00072078            0 
        1000      5.50021     0.986548  0.000723931            0 
        1000      5.57231     0.987943  0.000726853            0 
        1000      5.64493     0.989218  0.000729562           -0 
        1000      5.71803      0.99038  0.000732062           -0 
        1000      5.79154     0.991435  0.000734363           -0 
        1000      5.86558     0.992392  0.000736478           -0 
        1000      5.94003     0.993256  0.000738414           -0 
        1000      6.01501     0.994036  0.000740184            0 
        1000       6.0904     0.994735  0.000741795            0 
        1000      6.16632     0.995363  0.000743261            0 
        1000      6.24271     0.995924  0.000744589            0 
        1000       6.3195     0.996423  0.000745789            0 
        1000      6.39683     0.996867  0.000746871            0 
        1000      6.47457     0.997259  0.000747842           -0 
        1000      6.55284     0.997606  0.000748713           -0 
        1000      6.63152     0.997912   0.00074949           -0 
        1000      6.71073     0.998179  0.000750183           -0 
        1000      6.79034     0.998414  0.000750797           -0 
        1000      6.87049     0.998618  0.000751342            0 
        1000      6.95111     0.998795  0.000751823            0 
        1000      7.03214     0.998949  0.000752248            0 
        1000       7.1137     0.999082  0.000752622            0 
        1000      7.19566     0.999196  0.000752952            0 
        1000      7.27816     0.999294  0.000753241           -0 
        1000      7.36106     0.999378  0.000753495           -0 
        1000      7.44451     0.999449  0.000753713           -0 
        1000      7.52842     0.999509  0.000753894            0 
        1000      7.61273      0.99956  0.000754079 -1.42473e-23 
        1000      7.69758     0.999603  0.000754249 -2.77546e-23 
        1000      7.78283      0.99964  0.000754376 -3.69204e-23 
        1000      7.86862      0.99967  0.000754477 -4.28242e-23 
        1000      7.95481     0.999695  0.000754563 -4.63366e-23 
        1000      8.04155     0.999716  0.000754639 -4.81778e-23 
        1000      8.12868     0.999734   0.00075471 -4.89091e-23 
        1000      8.21635     0.999748  0.000754777 -4.89632e-23 
        1000      8.30449      0.99976   0.00075484 -4.86553e-23 
        1000      8.39303      0.99977  0.000754899 -4.82022e-23 
        1000      8.48211     0.999778  0.000754954 -4.77373e-23 
        1000      8.57159     0.999784  0.000755003 -4.73288e-23 
        1000      8.66161     0.999789  0.000755046 -4.69924e-23 
        1000      8.75203     0.999794  0.000755085 -4.67091e-23 
        1000      8.84299     0.999797  0.000755118 -4.64365e-23 
        1000      8.93443       0.9998  0.000755148 -4.61232e-23 
        1000      9.02626     0.999802  0.000755175 -4.57193e-23 
        1000      9.11863     0.999804    0.0007552 -4.51852e-23 
        1000      9.21139     0.999806  0.000755225 -4.45021e-23 
        1000      9.30471     0.999807  0.000755251 -4.36738e-23 
        1000      9.39841     0.999808  0.000755278 -4.27348e-23 
        1000      9.49267     0.999809  0.000755307 -4.17458e-23 
        1000      9.58739      0.99981  0.000755337 -4.07968e-23 
        1000      9.68251      0.99981  0.000755369 -3.99987e-23 
        1000      9.77817     0.999811  0.000755401 -3.94736e-23 
        1000      9.87422     0.999811  0.000755433 -3.93448e-23 
        1000      9.97083     0.999812  0.000755462 -3.97176e-23 
        1000      10.0678     0.999812  0.000755489 -4.06577e-23 
        1000      10.1654     0.999813  0.000755512 -4.21674e-23 
        1000      10.2633     0.999813  0.000755533 -4.41469e-23 
        1000      10.3618     0.999814  0.000755551 -4.63666e-23 
        1000      10.4607     0.999814   0.00075557 -4.84115e-23 
        1000      10.5601     0.999814  0.000755593 -4.96365e-23 
        1000        10.66     0.999815  0.000755626   -4.911e-23 
        1000      10.7603     0.999815  0.000755673 -4.55452e-23 
        1000      10.8611     0.999815   0.00075574  -3.7218e-23 
        1000      10.9623     0.999816  0.000755704            0 
        1000      11.0641     0.999816  0.000755639            0 
        1000      11.1663     0.999816  0.000755663           -0 
        1000       11.269     0.999817  0.000755726           -0 
        1000      11.3721     0.999817  0.000755798           -0 
        1000      11.4757     0.999817  0.000755861            0 
        1000      11.5798     0.999818  0.000755908            0 
        1000      11.6844     0.999818  0.000755937            0 
        1000      11.7894     0.999818  0.000755953            0 
        1000       11.895     0.999819  0.000755961            0 
        1000      12.0009     0.999819  0.000755966            0 
        1000      12.1073     0.999819  0.000755973           -0 
        1000      12.2142      0.99982  0.000755986           -0 
        1000      12.3216      0.99982  0.000756008           -0 
        1000      12.4294      0.99982  0.000756037           -0 
        1000      12.5378     0.999821  0.000756075           -0 
        1000      12.6465     0.999821  0.000756117           -0 
        1000      12.7558     0.999821  0.000756162            0 
        1000      12.8656     0.999822  0.000756206            0 
        1000      12.9757     0.999822  0.000756246            0 
        1000      13.0864     0.999822   0.00075628            0 
        1000      13.1975     0.999823  0.000756306            0 
        1000      13.3092     0.999823  0.000756326            0 
        1000      13.4212     0.999823  0.000756339           -0 
        1000      13.5338     0.999824  0.000756349           -0 
        1000      13.6468     0.999824  0.000756358           -0 
        1000      13.7603     0.999824   0.00075637           -0 
        1000      13.8743     0.999825  0.000756388           -0 
        1000      13.9886     0.999825  0.000756414           -0 
        1000      14.1036     0.999826   0.00075645            0 
        1000      14.2189     0.999826  0.000756492            0 
        1000      14.3348     0.999826  0.000756539            0 
        1000       14.451     0.999827  0.000756584            0 
        1000      14.5678     0.999827  0.000756619           -0 
        1000      14.6851     0.999827  0.000756637           -0 
        1000      14.8028     0.999828  0.000756634           -0 
        1000       14.921     0.999828   0.00075661           -0 
        1000      15.0396     0.999828  0.000756583            0 
        1000      15.1588     0.999829    0.0007567  2.09745e-22 
        1000      15.2783     0.999829  0.000756837  1.51314e-22 
        1000      15.3984      0.99983   0.00075689  1.06302e-22 
        1000       15.519      0.99983    0.0007569  7.21551e-23 
        1000        15.64      0.99983  0.000756895  4.66472e-23 
        1000      15.7615     0.999831  0.000756891   2.7833e-23 
        1000      15.8834     0.999831  0.000756896  1.41471e-23 
        1000      16.0058     0.999832  0.000756914  4.25031e-24 
        1000      16.1286     0.999832  0.000756943 -2.90554e-24 
        1000       16.252     0.999832  0.000756981 -8.17295e-24 
        1000      16.3759     0.999833  0.000757023 -1.21893e-23 
        1000      16.5002     0.999833  0.000757066 -1.54253e-23 
        1000       16.625     0.999833  0.000757106 -1.82138e-23 
        1000      16.7501     0.999834  0.000757142 -2.07576e-23 
        1000      16.8759     0.999834  0.000757172 -2.31713e-23 
        1000       17.002     0.999835  0.000757196 -2.54877e-23 
        1000      17.1287     0.999835  0.000757215 -2.76935e-23 
        1000      17.2557     0.999835   0.00075723 -2.97348e-23 
        1000      17.3834     0.999836  0.000757245 -3.15477e-23 
        1000      17.5115     0.999836   0.00075726 -3.30625e-23 
        1000      17.6399     0.999837  0.000757279 -3.42231e-23 
        1000       17.769     0.999837  0.000757301 -3.49992e-23 
        1000      17.8984     0.999837  0.000757329 -3.53888e-23 
        1000      18.0284     0.999838  0.000757362 -3.54286e-23 
        1000      18.1587     0.999838  0.000757399 -3.51931e-23 
        1000      18.2896     0.999839  0.000757439 -3.47941e-23 
        1000       18.421     0.999839   0.00075748 -3.43766e-23 
        1000      18.5528     0.999839  0.000757519 -3.41091e-23 
        1000      18.6851      0.99984  0.000757554 -3.41696e-23 
        1000      18.8178      0.99984  0.000757583 -3.47291e-23 
        1000      18.9511     0.999841  0.000757606   -3.593e-23 
        1000      19.0847     0.999841  0.000757623 -3.78543e-23 
        1000      19.2189     0.999842  0.000757637 -4.04985e-23 
        1000      19.3535     0.999842   0.00075765 -4.37224e-23 
        1000      19.4886     0.999842  0.000757667 -4.72206e-23 
        1000      19.6242     0.999843  0.000757694 -5.04538e-23 
        1000      19.7602     0.999843  0.000757734 -5.25995e-23 
        1000      19.8968     0.999844   0.00075779 -5.24899e-23 
        1000      20.0337     0.999844  0.000757856 -4.85324e-23 
        1000      20.1712     0.999844  0.000757917 -3.86217e-23 
        1000      20.3091     0.999845  0.000757944 -2.00829e-23 
        1000      20.4475     0.999845  0.000757819            0 
        1000      20.5864     0.999846  0.000757787            0 
        1000      20.7257     0.999846   0.00075782           -0 
        1000      20.8655     0.999847  0.000757884           -0 
        1000      21.0058     0.999847  0.000757955           -0 
        1000      21.1465     0.999847  0.000758021           -0 
        1000      21.2877     0.999848  0.000758074            0 
        1000      21.4294     0.999848  0.000758114            0 
        1000      21.5716     0.999849  0.000758141            0 
        1000      21.7142     0.999849  0.000758159            0 
        1000      21.8573      0.99985  0.000758172            0 
        1000      22.0008      0.99985  0.000758183            0 
        1000      22.1449     0.999851  0.000758196           -0 
        1000      22.2893     0.999851  0.000758214           -0 
        1000      22.4344     0.999851  0.000758237           -0 
        1000      22.5797     0.999852  0.000758266           -0 
        1000      22.7257     0.999852    0.0007583           -0 
        1000      22.8721     0.999853  0.000758338           -0 
        1000      23.0189     0.999853  0.000758378           -0 
        1000      23.1663     0.999854  0.000758418            0 
        1000       23.314     0.999854  0.000758456            0 
        1000      23.4623     0.999855   0.00075849            0 
        1000       23.611     0.999855   0.00075852            0 
        1000      23.7602     0.999855  0.000758546            0 
        1000        23.91     0.999856  0.000758566            0 
        1000        24.06     0.999856  0.000758583            0 
        1000      24.2107     0.999857  0.000758598           -0 
        1000      24.3617     0.999857  0.000758613           -0 
        1000      24.5133     0.999858  0.000758631           -0 
        1000      24.6653     0.999858  0.000758652           -0 
        1000      24.8178     0.999859  0.000758679           -0 
        1000      24.9708     0.999859  0.000758712           -0 
        1000      25.1242      0.99986  0.000758751           -0 
        1000      25.2781      0.99986  0.000758794            0 
        1000      25.4324     0.999861  0.000758837            0 
        1000      25.5873     0.999861  0.000758876            0 
        1000      25.7426     0.999861  0.000758907            0 
        1000      25.8984     0.999862  0.000758926            0 
        1000      26.0546     0.999862  0.000758931           -0 
        1000      26.2114     0.999863  0.000758925           -0 
        1000      26.3686     0.999863   0.00075892           -0 
        1000      26.5262     0.999864   0.00075894           -0 
        1000      26.6844     0.999864  0.000759025            0 
        1000      26.8429     0.999865  0.000759243            0 
        1000       27.002     0.999865  0.000759082 -7.60333e-22 
        1000      27.1615     0.999866  0.000758975 -6.13092e-22 
        1000      27.3216     0.999866  0.000758951 -4.93289e-22 
        1000      27.4821     0.999867  0.000758978 -3.96424e-22 
        1000       27.643     0.999867  0.000759031 -3.18505e-22 
        1000      27.8044     0.999868  0.000759094 -2.55903e-22 
        1000      27.9663     0.999868  0.000759157 -2.05716e-22 
        1000      28.1287     0.999869  0.000759213 -1.65314e-22 
        1000      28.2914     0.999869   0.00075926  -1.3263e-22 
        1000      28.4548      0.99987  0.000759295 -1.05856e-22 
        1000      28.6185      0.99987  0.000759322  -8.3612e-23 
        1000      28.7828     0.999871  0.000759341 -6.47392e-23 
        1000      28.9475     0.999871  0.000759355 -4.83927e-23 
        1000      29.1126     0.999872  0.000759367 -3.39437e-23 
        1000      29.2784     0.999872  0.000759379 -2.09206e-23 
        1000      29.4444     0.999873  0.000759393 -9.05316e-24 
        1000       29.611     0.999873  0.000759411  1.84221e-24 
        1000       29.778     0.999874  0.000759434  1.18153e-23 
        1000      29.9456     0.999874  0.000759461  2.08785e-23 
        1000      30.1137     0.999875  0.000759493  2.89737e-23 
        1000      30.2821     0.999875  0.000759529   3.6022e-23 
        1000      30.4511     0.999876  0.000759567   4.1956e-23 
        1000      30.6204     0.999876  0.000759607  4.66996e-23 
        1000      30.7903     0.999877  0.000759646  5.02188e-23 
        1000      30.9606     0.999877  0.000759684  5.25013e-23 
        1000      31.1315     0.999878   0.00075972  5.35863e-23 
        1000      31.3028     0.999878  0.000759751  5.35514e-23 
        1000      31.4745     0.999879  0.000759779  5.25213e-23 
        1000      31.6468     0.999879  0.000759803  5.06561e-23 
        1000      31.8194      0.99988  0.000759822  4.81488e-23 
        1000      31.9926      0.99988  0.000759839  4.51997e-23 
        1000      32.1662     0.999881  0.000759853  4.20126e-23 
        1000      32.3404     0.999881  0.000759867  3.87517e-23 
        1000      32.5149     0.999882  0.000759882   3.5532e-23 
        1000        32.69     0.999882  0.000759899  3.23631e-23 
        1000      32.8655     0.999883  0.000759921  2.91249e-23 
        1000      33.0414     0.999883  0.000759947  2.55134e-23 
        1000       33.218     0.999884  0.000759979  2.09759e-23 
        1000      33.3948     0.999884  0.000760016  1.46731e-23 
        1000      33.5723     0.999885  0.000760059  5.37827e-24 
        1000        33.75     0.999885  0.000760104 -8.55434e-24 
        1000      33.9284     0.999886   0.00076015 -2.93388e-23 
        1000      34.1073     0.999886  0.000760194  -5.9781e-23 
        1000      34.2865     0.999887  0.000760231 -1.03378e-22 
        1000      34.4663     0.999887  0.000760259 -1.64565e-22 
        1000      34.6465     0.999888  0.000760274 -2.48557e-22 
        1000      34.8272     0.999888  0.000760275 -3.61884e-22 
        1000      35.0083     0.999889  0.000760265 -5.11967e-22 
        1000        35.19      0.99989  0.000760226            0 
        1000      35.3721      0.99989   0.00076022            0 
        1000      35.5546     0.999891  0.000760237           -0 
        1000      35.7377     0.999891  0.000760267           -0 
        1000      35.9211     0.999892  0.000760301           -0 
        1000      36.1052     0.999892  0.000760336           -0 
        1000      36.2895     0.999893  0.000760368           -0 
        1000      36.4745     0.999893  0.000760395            0 
        1000      36.6598     0.999894  0.000760418            0 
        1000      36.8457     0.999894  0.000760437            0 
        1000      37.0321     0.999895  0.000760453            0 
        1000      37.2188     0.999896  0.000760468            0 
        1000      37.4062     0.999896  0.000760481            0 
        1000      37.5938     0.999897  0.000760495            0 
        1000      37.7821     0.999897  0.000760511           -0 
        1000      37.9707     0.999898  0.000760529           -0 
        1000      38.1599     0.999898   0.00076055           -0 
        1000      38.3496     0.999899  0.000760573           -0 
        1000      38.5396     0.999899  0.000760599           -0 
        1000      38.7302       0.9999  0.000760628           -0 
        1000      38.9211     0.999901  0.000760657           -0 
        1000      39.1127     0.999901  0.000760688           -0 
        1000      39.3046     0.999902  0.000760719            0 
        1000      39.4971     0.999902  0.000760749            0 
        1000      39.6899     0.999903  0.000760777            0 
        1000      39.8833     0.999903  0.000760803            0 
        1000      40.0772     0.999904  0.000760827            0 
        1000      40.2714     0.999904  0.000760848            0 
        1000      40.4663     0.999905  0.000760866            0 
        1000      40.6615     0.999906  0.000760881            0 
        1000      40.8573     0.999906  0.000760894            0 
        1000      41.0534     0.999907  0.000760905           -0 
        1000      41.2501     0.999907  0.000760915           -0 
        1000      41.4473     0.999908  0.000760925           -0 
        1000      41.6448     0.999909  0.000760936           -0 
        1000      41.8429     0.999909  0.000760949           -0 
        1000      42.0414      0.99991  0.000760964           -0 
        1000      42.2405      0.99991  0.000760983           -0 
        1000      42.4399     0.999911  0.000761005           -0 
        1000      42.6399     0.999911  0.000761031            0 
        1000      42.8404     0.999912  0.000761059            0 
        1000      43.0412     0.999912  0.000761091            0 
        1000      43.2426     0.999913  0.000761124            0 
        1000      43.4444     0.999914  0.000761157            0 
        1000      43.6467     0.999914  0.000761189            0 
        1000      43.8494     0.999915  0.000761218            0 
        1000      44.0527     0.999915  0.000761245           -0 
        1000      44.2563     0.999916  0.000761268           -0 
        1000      44.4606     0.999917  0.000761289           -0 
        1000      44.6653     0.999917  0.000761312           -0 
        1000      44.8704     0.999918  0.000761344            0 
        1000       45.076     0.999919  0.000761396            0 
        1000       45.282     0.999919  0.000761403 -2.55385e-22 
        1000      45.4886     0.999919  0.000761186 -1.35927e-22 
        1000      45.6955      0.99992  0.000761094 -3.97932e-23 
        1000       45.903     0.999921  0.000761086  3.60526e-23 
        1000      46.1111     0.999921  0.000761132  9.41771e-23 
        1000      46.3194     0.999922  0.000761207  1.36987e-22 
        1000      46.5283     0.999922  0.000761296  1.66774e-22 
        1000      46.7376     0.999923  0.000761386  1.85513e-22 
        1000      46.9475     0.999924  0.000761467  1.95066e-22 
        1000      47.1577     0.999924  0.000761537  1.97064e-22 
        1000      47.3685     0.999925  0.000761592  1.92987e-22 
        1000      47.5798     0.999926  0.000761632  1.84144e-22 
        1000      47.7914     0.999926  0.000761659  1.71702e-22 
        1000      48.0037     0.999927  0.000761673  1.56652e-22 