Variables = x, y, u, v, p

Zone, I=800, F=POINT
          20            0  2.73143e-18 -1.70343e-31 -0.000150024 
          20     0.000234  0.000129794  2.12647e-11 -0.000150024 
          20     0.000939  0.000520841   3.4242e-10 -0.000150023 
          20     0.002113   0.00117203  1.73391e-09 -0.000150022 
          20     0.003759   0.00208503  5.48749e-09 -0.000150021 
          20     0.005872   0.00325707  1.33907e-08 -0.000150019 
          20     0.008457   0.00469091  2.77756e-08 -0.000150017 
          20      0.01151   0.00638436  5.14498e-08 -0.000150015 
          20     0.015036   0.00834017  8.78009e-08 -0.000150012 
          20     0.019031    0.0105561  1.40656e-07 -0.000150009 
          20     0.023493    0.0130312  2.14346e-07 -0.000150006 
          20     0.028429    0.0157691  3.13879e-07 -0.000150002 
          20     0.033831    0.0187655    4.445e-07 -0.000149998 
          20     0.039706    0.0220244  6.12288e-07 -0.000149993 
          20     0.046047    0.0255417  8.23471e-07 -0.000149988 
          20     0.052863    0.0293225   1.0853e-06 -0.000149983 
          20      0.06015    0.0333646  1.40514e-06 -0.000149977 
          20       0.0679    0.0376634  1.79056e-06 -0.000149971 
          20     0.076126    0.0422263   2.2507e-06 -0.000149965 
          20     0.084816    0.0470465  2.79387e-06 -0.000149958 
          20     0.093982    0.0521307  3.43036e-06 -0.000149951 
          20     0.103611    0.0574716  4.16927e-06 -0.000149944 
          20     0.113718    0.0630774   5.0223e-06 -0.000149936 
          20     0.124286    0.0689387  5.99906e-06 -0.000149927 
          20     0.135333    0.0750653  7.11277e-06 -0.000149919 
          20      0.14685    0.0814521  8.37469e-06  -0.00014991 
          20     0.158827    0.0880934  9.79615e-06 -0.000149901 
          20     0.171284    0.0950002  1.13926e-05 -0.000149891 
          20     0.184201     0.102161   1.3175e-05 -0.000149881 
          20     0.197599     0.109587  1.51604e-05  -0.00014987 
          20     0.211455     0.117266  1.73597e-05  -0.00014986 
          20     0.225792      0.12521  1.97917e-05 -0.000149848 
          20       0.2406     0.133412  2.24704e-05 -0.000149837 
          20     0.255865     0.141864  2.54088e-05 -0.000149825 
          20     0.271613     0.150581  2.86283e-05 -0.000149813 
          20     0.287818     0.159547  3.21404e-05   -0.0001498 
          20     0.304506     0.168775  3.59679e-05 -0.000149787 
          20      0.32165      0.17825  4.01222e-05 -0.000149774 
          20     0.339278     0.187985  4.46279e-05  -0.00014976 
          20     0.357377     0.197973  4.95002e-05 -0.000149745 
          20      0.37593     0.208203   5.4753e-05 -0.000149731 
          20     0.394968     0.218689  6.04136e-05 -0.000149716 
          20     0.414461     0.229413  6.64922e-05   -0.0001497 
          20      0.43444     0.240391  7.30177e-05 -0.000149685 
          20     0.454872     0.251601  7.99988e-05 -0.000149668 
          20     0.475791     0.263059  8.74663e-05 -0.000149652 
          20     0.497163     0.274744  9.54276e-05 -0.000149634 
          20     0.519021     0.286671  0.000103914 -0.000149617 
          20      0.54135     0.298826   0.00011294 -0.000149599 
          20     0.564131     0.311196  0.000122516  -0.00014958 
          20       0.5874     0.323796  0.000132676 -0.000149561 
          20     0.611121       0.3366  0.000143422 -0.000149542 
          20      0.63533     0.349623  0.000154789 -0.000149522 
          20      0.65999     0.362838  0.000166776 -0.000149501 
          20     0.685139     0.376259  0.000179418  -0.00014948 
          20     0.710759     0.389869  0.000192721 -0.000149459 
          20     0.736828     0.403648  0.000206689 -0.000149436 
          20     0.763387     0.417609  0.000221355 -0.000149413 
          20     0.790396     0.431722   0.00023671  -0.00014939 
          20     0.817896     0.445997  0.000252787 -0.000149366 
          20     0.845843     0.460402  0.000269568 -0.000149341 
          20     0.874283     0.474947  0.000287088 -0.000149315 
          20      0.90317     0.489597  0.000305322 -0.000149289 
          20     0.932551     0.504363  0.000324302 -0.000149262 
          20     0.962401     0.519216  0.000344011 -0.000149233 
          20     0.992697     0.534132   0.00036443 -0.000149205 
          20      1.02349     0.549118  0.000385586 -0.000149175 
          20      1.05472     0.564132  0.000407434 -0.000149144 
          20      1.08645     0.579183  0.000429997 -0.000149112 
          20      1.11863     0.594225  0.000453223 -0.000149079 
          20       1.1513     0.609266  0.000477127 -0.000149045 
          20      1.18444     0.624272  0.000501668  -0.00014901 
          20      1.21802      0.63921  0.000526796 -0.000148973 
          20      1.25211     0.654085   0.00055252 -0.000148936 
          20      1.28663     0.668848  0.000578762 -0.000148897 
          20      1.32165     0.683503  0.000605523 -0.000148856 
          20      1.35712     0.698003  0.000632716 -0.000148815 
          20      1.39308     0.712346  0.000660333 -0.000148771 
          20      1.42951       0.7265  0.000688302 -0.000148726 
          20      1.46638     0.740429  0.000716541  -0.00014868 
          20      1.50375     0.754132  0.000745035 -0.000148632 
          20      1.54156     0.767565  0.000773674 -0.000148582 
          20      1.57987     0.780726  0.000802434 -0.000148531 
          20      1.61863     0.793573  0.000831201 -0.000148477 
          20      1.65788     0.806106  0.000859948 -0.000148422 
          20      1.69757     0.818283  0.000888552 -0.000148365 
          20      1.73776     0.830105  0.000916985 -0.000148306 
          20      1.77842     0.841546  0.000945146 -0.000148246 
          20      1.81952     0.852578  0.000972935 -0.000148183 
          20      1.86113     0.863207   0.00100032 -0.000148118 
          20      1.90316     0.873401   0.00102719 -0.000148052 
          20      1.94571     0.883166    0.0010535 -0.000147983 
          20      1.98869     0.892478   0.00107915 -0.000147912 
          20      2.03217     0.901345   0.00110411  -0.00014784 
          20      2.07612     0.909754    0.0011283 -0.000147765 
          20      2.12051     0.917697   0.00115164 -0.000147689 
          20       2.1654     0.925187   0.00117411  -0.00014761 
          20      2.21073     0.932213   0.00119564  -0.00014753 
          20      2.25656     0.938793   0.00121622 -0.000147448 
          20      2.30283     0.944921   0.00123579 -0.000147364 
          20       2.3496     0.950616   0.00125435 -0.000147278 
          20      2.39685     0.955885   0.00127186  -0.00014719 
          20      2.44452     0.960736   0.00128832 -0.000147101 
          20      2.49271     0.965192   0.00130373 -0.000147009 
          20      2.54132      0.96926   0.00131808 -0.000146917 
          20      2.59044     0.972966    0.0013314 -0.000146822 
          20         2.64      0.97632    0.0013437 -0.000146726 
          20      2.69006     0.979348   0.00135501 -0.000146629 
          20      2.74056     0.982064   0.00136536 -0.000146531 
          20      2.79156     0.984494   0.00137478  -0.00014643 
          20      2.84304     0.986654   0.00138332 -0.000146329 
          20      2.89494     0.988565   0.00139102 -0.000146225 
          20      2.94735     0.990249   0.00139793  -0.00014612 
          20       3.0002     0.991723   0.00140409 -0.000146014 
          20      3.05355     0.993008   0.00140956 -0.000145907 
          20      3.10733     0.994122   0.00141438 -0.000145799 
          20      3.16163     0.995083   0.00141863  -0.00014569 
          20      3.21639     0.995907   0.00142233 -0.000145579 
          20      3.27158     0.996609   0.00142555 -0.000145468 
          20      3.32729     0.997204   0.00142832 -0.000145355 
          20      3.38342     0.997705   0.00143071 -0.000145241 
          20      3.44007     0.998126   0.00143274 -0.000145126 
          20      3.49714     0.998475   0.00143447  -0.00014501 
          20      3.55472     0.998765   0.00143593 -0.000144893 
          20      3.61273     0.999003   0.00143716 -0.000144775 
          20      3.67125     0.999197   0.00143818 -0.000144656 
          20      3.73025     0.999355   0.00143903 -0.000144536 
          20      3.78967     0.999482   0.00143973 -0.000144415 
          20      3.84961     0.999584   0.00144031 -0.000144293 
          20      3.90996     0.999665   0.00144078  -0.00014417 
          20      3.97084     0.999729   0.00144117 -0.000144046 
          20      4.03214      0.99978   0.00144148 -0.000143922 
          20      4.09395     0.999819   0.00144174 -0.000143796 
          20      4.15624     0.999849   0.00144195 -0.000143669 
          20      4.21895     0.999872   0.00144212 -0.000143541 
          20      4.28217      0.99989   0.00144226 -0.000143412 
          20      4.34582     0.999903   0.00144237 -0.000143282 
          20      4.40998     0.999913   0.00144247 -0.000143152 
          20      4.47457     0.999921   0.00144255  -0.00014302 
          20      4.53968     0.999926   0.00144262 -0.000142887 
          20      4.60525      0.99993   0.00144268 -0.000142753 
          20      4.67125     0.999933   0.00144274 -0.000142619 
          20      4.73777     0.999935   0.00144279 -0.000142483 
          20       4.8047     0.999937   0.00144283 -0.000142347 
          20      4.87216     0.999938   0.00144288 -0.000142209 
          20      4.94003     0.999939   0.00144292 -0.000142071 
          20      5.00843      0.99994   0.00144296 -0.000141931 
          20      5.07724      0.99994     0.001443 -0.000141791 
          20      5.14658      0.99994   0.00144304 -0.000141649 
          20      5.21639     0.999941   0.00144308 -0.000141507 
          20      5.28661     0.999941   0.00144312 -0.000141363 
          20      5.35736     0.999941   0.00144316 -0.000141219 
          20      5.42852     0.999941    0.0014432 -0.000141074 
          20      5.50021     0.999941   0.00144324 -0.000140927 
          20      5.57231     0.999941   0.00144328  -0.00014078 
          20      5.64493     0.999941   0.00144332 -0.000140632 
          20      5.71803     0.999941   0.00144336 -0.000140483 
          20      5.79154     0.999942   0.00144339 -0.000140333 
          20      5.86558     0.999942   0.00144344 -0.000140182 
          20      5.94003     0.999942   0.00144348 -0.000140029 
          20      6.01501     0.999942   0.00144352 -0.000139876 
          20       6.0904     0.999942   0.00144356 -0.000139722 
          20      6.16632     0.999942    0.0014436 -0.000139567 
          20      6.24271     0.999942   0.00144364 -0.000139411 
          20       6.3195     0.999942   0.00144368 -0.000139254 
          20      6.39683     0.999942   0.00144372 -0.000139096 
          20      6.47457     0.999942   0.00144376 -0.000138938 
          20      6.55284     0.999942    0.0014438 -0.000138778 
          20      6.63152     0.999943   0.00144385 -0.000138617 
          20      6.71073     0.999943   0.00144389 -0.000138455 
          20      6.79034     0.999943   0.00144393 -0.000138292 
          20      6.87049     0.999943   0.00144397 -0.000138128 
          20      6.95111     0.999943   0.00144402 -0.000137963 
          20      7.03214     0.999943   0.00144406 -0.000137798 
          20       7.1137     0.999943    0.0014441 -0.000137631 
          20      7.19566     0.999943   0.00144415 -0.000137464 
          20      7.27816     0.999943   0.00144419 -0.000137295 
          20      7.36106     0.999943   0.00144423 -0.000137125 
          20      7.44451     0.999944   0.00144428 -0.000136955 
          20      7.52842     0.999944   0.00144432 -0.000136783 
          20      7.61273     0.999944   0.00144437 -0.000136611 
          20      7.69758     0.999944   0.00144441 -0.000136437 
          20      7.78283     0.999944   0.00144446 -0.000136263 
          20      7.86862     0.999944    0.0014445 -0.000136087 
          20      7.95481     0.999944   0.00144455 -0.000135911 
          20      8.04155     0.999944   0.00144459 -0.000135733 
          20      8.12868     0.999944   0.00144464 -0.000135555 
          20      8.21635     0.999944   0.00144468 -0.000135376 
          20      8.30449     0.999945   0.00144473 -0.000135195 
          20      8.39303     0.999945   0.00144478 -0.000135014 
          20      8.48211     0.999945   0.00144482 -0.000134832 
          20      8.57159     0.999945   0.00144487 -0.000134648 
          20      8.66161     0.999945   0.00144491 -0.000134464 
          20      8.75203     0.999945   0.00144496 -0.000134279 
          20      8.84299     0.999945   0.00144501 -0.000134093 
          20      8.93443     0.999945   0.00144505 -0.000133905 
          20      9.02626     0.999945    0.0014451 -0.000133718 
          20      9.11863     0.999946   0.00144515 -0.000133529 
          20      9.21139     0.999946    0.0014452 -0.000133339 
          20      9.30471     0.999946   0.00144524 -0.000133148 
          20      9.39841     0.999946   0.00144529 -0.000132955 
          20      9.49267     0.999946   0.00144534 -0.000132762 
          20      9.58739     0.999946   0.00144539 -0.000132568 
          20      9.68251     0.999946   0.00144544 -0.000132373 
          20      9.77817     0.999946   0.00144549 -0.000132177 
          20      9.87422     0.999946   0.00144553  -0.00013198 
          20      9.97083     0.999947   0.00144558 -0.000131782 
          20      10.0678     0.999947   0.00144563 -0.000131583 
          20      10.1654     0.999947   0.00144568 -0.000131383 
          20      10.2633     0.999947   0.00144573 -0.000131182 
          20      10.3618     0.999947   0.00144578  -0.00013098 
          20      10.4607     0.999947   0.00144583 -0.000130777 
          20      10.5601     0.999947   0.00144588 -0.000130573 
          20        10.66     0.999947   0.00144593 -0.000130368 
          20      10.7603     0.999947   0.00144598 -0.000130163 
          20      10.8611     0.999948   0.00144603 -0.000129956 
          20      10.9623     0.999948   0.00144608 -0.000129748 
          20      11.0641     0.999948   0.00144613  -0.00012954 
          20      11.1663     0.999948   0.00144618  -0.00012933 
          20       11.269     0.999948   0.00144623 -0.000129119 
          20      11.3721     0.999948   0.00144629 -0.000128907 
          20      11.4757     0.999948   0.00144634 -0.000128695 
          20      11.5798     0.999948   0.00144639 -0.000128481 
          20      11.6844     0.999948   0.00144644 -0.000128266 
          20      11.7894     0.999949   0.00144649 -0.000128051 
          20       11.895     0.999949   0.00144654 -0.000127834 
          20      12.0009     0.999949   0.00144659 -0.000127616 
          20      12.1073     0.999949   0.00144664 -0.000127398 
          20      12.2142     0.999949    0.0014467 -0.000127178 
          20      12.3216     0.999949   0.00144675 -0.000126957 
          20      12.4294     0.999949    0.0014468 -0.000126736 
          20      12.5378     0.999949   0.00144685 -0.000126513 
          20      12.6465      0.99995   0.00144691  -0.00012629 
          20      12.7558      0.99995   0.00144696 -0.000126065 
          20      12.8656      0.99995   0.00144701  -0.00012584 
          20      12.9757      0.99995   0.00144707 -0.000125613 
          20      13.0864      0.99995   0.00144712 -0.000125386 
          20      13.1975      0.99995   0.00144717 -0.000125157 
          20      13.3092      0.99995   0.00144723 -0.000124928 
          20      13.4212      0.99995   0.00144728 -0.000124697 
          20      13.5338     0.999951   0.00144733 -0.000124466 
          20      13.6468     0.999951   0.00144739 -0.000124233 
          20      13.7603     0.999951   0.00144744    -0.000124 
          20      13.8743     0.999951    0.0014475 -0.000123766 
          20      13.9886     0.999951   0.00144755 -0.000123531 
          20      14.1036     0.999951    0.0014476 -0.000123294 
          20      14.2189     0.999951   0.00144766 -0.000123057 
          20      14.3348     0.999951   0.00144771 -0.000122818 
          20       14.451     0.999952   0.00144777 -0.000122579 
          20      14.5678     0.999952   0.00144782 -0.000122338 
          20      14.6851     0.999952   0.00144788 -0.000122097 
          20      14.8028     0.999952   0.00144793 -0.000121855 
          20       14.921     0.999952   0.00144799 -0.000121611 
          20      15.0396     0.999952   0.00144804 -0.000121367 
          20      15.1588     0.999952   0.00144809 -0.000121122 
          20      15.2783     0.999952   0.00144815 -0.000120876 
          20      15.3984     0.999953   0.00144821 -0.000120628 
          20       15.519     0.999953   0.00144826  -0.00012038 
          20        15.64     0.999953   0.00144832 -0.000120131 
          20      15.7615     0.999953   0.00144837 -0.000119881 
          20      15.8834     0.999953   0.00144843  -0.00011963 
          20      16.0058     0.999953   0.00144849 -0.000119373 
          20      16.1286     0.999953   0.00144853 -0.000119122 
          20       16.252     0.999953   0.00144859  -0.00011887 
          20      16.3759     0.999954   0.00144865 -0.000118615 
          20      16.5002     0.999954   0.00144871 -0.000118359 
          20       16.625     0.999954   0.00144877 -0.000118101 
          20      16.7501     0.999954   0.00144882 -0.000117843 
          20      16.8759     0.999954   0.00144887 -0.000117584 
          20       17.002     0.999954   0.00144893 -0.000117324 
          20      17.1287     0.999954   0.00144899 -0.000117063 
          20      17.2557     0.999954   0.00144905 -0.000116801 
          20      17.3834     0.999955    0.0014491 -0.000116538 
          20      17.5115     0.999955   0.00144916 -0.000116274 
          20      17.6399     0.999955   0.00144921 -0.000116009 
          20       17.769     0.999955   0.00144927 -0.000115742 
          20      17.8984     0.999955   0.00144933 -0.000115476 
          20      18.0284     0.999955   0.00144938 -0.000115207 
          20      18.1587     0.999955   0.00144944 -0.000114938 
          20      18.2896     0.999956    0.0014495 -0.000114668 
          20       18.421     0.999956   0.00144956 -0.000114397 
          20      18.5528     0.999956   0.00144961 -0.000114125 
          20      18.6851     0.999956   0.00144967 -0.000113852 
          20      18.8178     0.999956   0.00144973 -0.000113579 
          20      18.9511     0.999956   0.00144979 -0.000113303 
          20      19.0847     0.999956   0.00144984 -0.000113027 
          20      19.2189     0.999957    0.0014499  -0.00011275 
          20      19.3535     0.999957   0.00144996 -0.000112472 
          20      19.4886     0.999957   0.00145002 -0.000112193 
          20      19.6242     0.999957   0.00145007 -0.000111913 
          20      19.7602     0.999957   0.00145013 -0.000111633 
          20      19.8968     0.999957   0.00145019 -0.000111351 
          20      20.0337     0.999957   0.00145025  -0.00011107 
          20      20.1712     0.999957    0.0014503 -0.000110786 
          20      20.3091     0.999958   0.00145036 -0.000110501 
          20      20.4475     0.999958   0.00145043 -0.000110214 
          20      20.5864     0.999958   0.00145048 -0.000109923 
          20      20.7257     0.999958   0.00145051 -0.000109637 
          20      20.8655     0.999958    0.0014506 -0.000109347 
          20      21.0058     0.999958   0.00145066 -0.000109056 
          20      21.1465     0.999958   0.00145071 -0.000108765 
          20      21.2877     0.999959   0.00145076 -0.000108473 
          20      21.4294     0.999959   0.00145082 -0.000108181 
          20      21.5716     0.999959   0.00145088 -0.000107888 
          20      21.7142     0.999959   0.00145094 -0.000107595 
          20      21.8573     0.999959     0.001451 -0.000107299 
          20      22.0008     0.999959   0.00145106 -0.000107003 
          20      22.1449     0.999959   0.00145112 -0.000106704 
          20      22.2893      0.99996   0.00145117 -0.000106404 
          20      22.4344      0.99996   0.00145123 -0.000106103 
          20      22.5797      0.99996   0.00145129 -0.000105801 
          20      22.7257      0.99996   0.00145135 -0.000105498 
          20      22.8721      0.99996   0.00145141 -0.000105195 
          20      23.0189      0.99996   0.00145147 -0.000104891 
          20      23.1663      0.99996   0.00145153 -0.000104587 
          20       23.314     0.999961   0.00145158 -0.000104282 
          20      23.4623     0.999961   0.00145164 -0.000103975 
          20       23.611     0.999961   0.00145171 -0.000103668 
          20      23.7602     0.999961   0.00145176 -0.000103359 
          20        23.91     0.999961   0.00145182 -0.000103047 
          20        24.06     0.999961   0.00145188 -0.000102736 
          20      24.2107     0.999961   0.00145194 -0.000102422 
          20      24.3617     0.999962     0.001452 -0.000102108 
          20      24.5133     0.999962   0.00145205 -0.000101793 
          20      24.6653     0.999962   0.00145211 -0.000101478 
          20      24.8178     0.999962   0.00145217 -0.000101162 
          20      24.9708     0.999962   0.00145223 -0.000100846 
          20      25.1242     0.999962   0.00145228 -0.000100529 
          20      25.2781     0.999962   0.00145234  -0.00010021 
          20      25.4324     0.999963    0.0014524 -9.98907e-05 
          20      25.5873     0.999963   0.00145246 -9.95689e-05 
          20      25.7426     0.999963   0.00145252 -9.92461e-05 
          20      25.8984     0.999963   0.00145259 -9.89225e-05 
          20      26.0546     0.999963   0.00145265 -9.85989e-05 
          20      26.2114     0.999963    0.0014527 -9.82741e-05 
          20      26.3686     0.999963   0.00145274 -9.79448e-05 
          20      26.5262     0.999964    0.0014528  -9.7605e-05 
          20      26.6844     0.999964   0.00145286 -9.72841e-05 
          20      26.8429     0.999964    0.0014529 -9.69639e-05 
          20       27.002     0.999964   0.00145298 -9.66304e-05 
          20      27.1615     0.999964   0.00145307 -9.63021e-05 
          20      27.3216     0.999964   0.00145311 -9.59788e-05 
          20      27.4821     0.999964   0.00145317  -9.5648e-05 
          20       27.643     0.999965   0.00145324 -9.53145e-05 
          20      27.8044     0.999965    0.0014533 -9.49789e-05 
          20      27.9663     0.999965   0.00145336  -9.4642e-05 
          20      28.1287     0.999965   0.00145341  -9.4303e-05 
          20      28.2914     0.999965   0.00145347 -9.39626e-05 
          20      28.4548     0.999965   0.00145353 -9.36208e-05 
          20      28.6185     0.999966   0.00145359 -9.32787e-05 
          20      28.7828     0.999966   0.00145365 -9.29363e-05 
          20      28.9475     0.999966    0.0014537 -9.25939e-05 
          20      29.1126     0.999966   0.00145375 -9.22511e-05 
          20      29.2784     0.999966    0.0014538 -9.19065e-05 
          20      29.4444     0.999966   0.00145387 -9.15597e-05 
          20       29.611     0.999966   0.00145394 -9.12112e-05 
          20       29.778     0.999967   0.00145398 -9.08663e-05 
          20      29.9456     0.999967   0.00145406 -9.05126e-05 
          20      30.1137     0.999967   0.00145412 -9.01618e-05 
          20      30.2821     0.999967   0.00145417 -8.98121e-05 
          20      30.4511     0.999967   0.00145422  -8.9461e-05 
          20      30.6204     0.999967   0.00145428 -8.91084e-05 
          20      30.7903     0.999967   0.00145434 -8.87537e-05 
          20      30.9606     0.999968    0.0014544 -8.83981e-05 
          20      31.1315     0.999968   0.00145446 -8.80414e-05 
          20      31.3028     0.999968   0.00145452 -8.76844e-05 
          20      31.4745     0.999968   0.00145457 -8.73274e-05 
          20      31.6468     0.999968   0.00145462   -8.697e-05 
          20      31.8194     0.999968   0.00145467 -8.66125e-05 
          20      31.9926     0.999968   0.00145473 -8.62537e-05 
          20      32.1662     0.999969   0.00145478 -8.58932e-05 
          20      32.3404     0.999969   0.00145484 -8.55288e-05 
          20      32.5149     0.999969   0.00145491 -8.51584e-05 
          20        32.69     0.999969   0.00145497 -8.47909e-05 
          20      32.8655     0.999969   0.00145503 -8.44251e-05 
          20      33.0414     0.999969   0.00145509 -8.40585e-05 
          20       33.218      0.99997   0.00145513 -8.36918e-05 
          20      33.3948      0.99997   0.00145517 -8.33252e-05 
          20      33.5723      0.99997   0.00145527 -8.29564e-05 
          20        33.75      0.99997   0.00145529 -8.25879e-05 
          20      33.9284      0.99997   0.00145534 -8.22195e-05 
          20      34.1073      0.99997   0.00145541 -8.18497e-05 
          20      34.2865      0.99997   0.00145547  -8.1477e-05 
          20      34.4663     0.999971   0.00145552 -8.10984e-05 
          20      34.6465     0.999971   0.00145557 -8.07117e-05 
          20      34.8272     0.999971   0.00145561 -8.03466e-05 
          20      35.0083     0.999971   0.00145566 -7.99747e-05 
          20        35.19     0.999971   0.00145571 -7.95976e-05 
          20      35.3721     0.999971   0.00145578 -7.92172e-05 
          20      35.5546     0.999972   0.00145584  -7.8835e-05 
          20      35.7377     0.999972   0.00145591 -7.84512e-05 
          20      35.9211     0.999972   0.00145596  -7.8067e-05 
          20      36.1052     0.999972   0.00145601 -7.76822e-05 
          20      36.2895     0.999972   0.00145606 -7.72976e-05 
          20      36.4745     0.999972    0.0014561 -7.69126e-05 
          20      36.6598     0.999973   0.00145615 -7.65276e-05 
          20      36.8457     0.999973    0.0014562 -7.61418e-05 
          20      37.0321     0.999973   0.00145627 -7.57548e-05 
          20      37.2188     0.999973   0.00145634 -7.53666e-05 
          20      37.4062     0.999973    0.0014564 -7.49758e-05 
          20      37.5938     0.999973   0.00145644 -7.45832e-05 
          20      37.7821     0.999973   0.00145647 -7.41884e-05 
          20      37.9707     0.999974   0.00145652 -7.37939e-05 
          20      38.1599     0.999974   0.00145664 -7.34025e-05 
          20      38.3496     0.999974   0.00145663 -7.30066e-05 
          20      38.5396     0.999974   0.00145669 -7.26127e-05 
          20      38.7302     0.999974   0.00145677 -7.22172e-05 
          20      38.9211     0.999974   0.00145682 -7.18192e-05 
          20      39.1127     0.999974   0.00145686 -7.14177e-05 
          20      39.3046     0.999975    0.0014569 -7.10141e-05 
          20      39.4971     0.999975   0.00145694 -7.06087e-05 
          20      39.6899     0.999975   0.00145699 -7.02032e-05 
          20      39.8833     0.999975   0.00145705 -6.97977e-05 
          20      40.0772     0.999975   0.00145711 -6.93929e-05 
          20      40.2714     0.999976   0.00145717 -6.89891e-05 
          20      40.4663     0.999976   0.00145721 -6.85851e-05 
          20      40.6615     0.999976   0.00145725 -6.81805e-05 
          20      40.8573     0.999976   0.00145729 -6.77738e-05 
          20      41.0534     0.999976   0.00145733 -6.73647e-05 
          20      41.2501     0.999976   0.00145739 -6.69522e-05 
          20      41.4473     0.999977   0.00145745 -6.65373e-05 
          20      41.6448     0.999977   0.00145751 -6.61223e-05 
          20      41.8429     0.999977   0.00145755 -6.57104e-05 
          20      42.0414     0.999977   0.00145761 -6.52945e-05 
          20      42.2405     0.999977   0.00145763 -6.48728e-05 
          20      42.4399     0.999977   0.00145763 -6.44484e-05 
          20      42.6399     0.999977   0.00145774 -6.40256e-05 
          20      42.8404     0.999978   0.00145779 -6.36014e-05 
          20      43.0412     0.999978    0.0014578 -6.31822e-05 
          20      43.2426     0.999978    0.0014579 -6.27683e-05 
          20      43.4444     0.999978   0.00145799 -6.23544e-05 
          20      43.6467     0.999978   0.00145806 -6.19362e-05 
          20      43.8494     0.999978    0.0014581 -6.15116e-05 
          20      44.0527     0.999979   0.00145812 -6.10783e-05 
          20      44.2563     0.999979   0.00145813 -6.06629e-05 
          20      44.4606     0.999979   0.00145814 -6.02427e-05 
          20      44.6653     0.999979   0.00145817  -5.9818e-05 
          20      44.8704     0.999979   0.00145822 -5.93903e-05 
          20       45.076     0.999979   0.00145828 -5.89599e-05 
          20       45.282     0.999979   0.00145836  -5.8528e-05 
          20      45.4886      0.99998   0.00145842 -5.80941e-05 
          20      45.6955      0.99998   0.00145848 -5.76587e-05 
          20       45.903      0.99998   0.00145852  -5.7221e-05 
          20      46.1111      0.99998   0.00145856 -5.67813e-05 
          20      46.3194      0.99998   0.00145858   -5.634e-05 
          20      46.5283      0.99998   0.00145861  -5.5897e-05 
          20      46.7376     0.999981   0.00145864 -5.54538e-05 
          20      46.9475     0.999981   0.00145869  -5.5011e-05 
          20      47.1577     0.999981   0.00145875 -5.45706e-05 
          20      47.3685     0.999981   0.00145881  -5.4133e-05 
          20      47.5798     0.999981   0.00145886 -5.36989e-05 
          20      47.7914     0.999981    0.0014589 -5.32672e-05 
          20      48.0037     0.999982   0.00145893  -5.2833e-05 