Variables = x, y, u, v, p

Zone, I=800, F=POINT
         400            0            0            0 -4.83018e-05 
         400     0.000234  9.03924e-05  7.16171e-12 -4.83017e-05 
         400     0.000939  0.000362729  1.15323e-10 -4.83016e-05 
         400     0.002113  0.000816236  5.83961e-10 -4.83012e-05 
         400     0.003759   0.00145207  1.84812e-09 -4.83008e-05 
         400     0.005872   0.00226831  4.50981e-09 -4.83003e-05 
         400     0.008457   0.00326688  9.35447e-09 -4.82996e-05 
         400      0.01151   0.00444623  1.73276e-08 -4.82988e-05 
         400     0.015036    0.0058083  2.95701e-08 -4.82979e-05 
         400     0.019031   0.00735155  4.73709e-08 -4.82968e-05 
         400     0.023493    0.0090752  7.21882e-08 -4.82957e-05 
         400     0.028429    0.0109819  1.05709e-07 -4.82944e-05 
         400     0.033831    0.0130687    1.497e-07  -4.8293e-05 
         400     0.039706    0.0153382  2.06208e-07 -4.82914e-05 
         400     0.046047    0.0177877  2.77329e-07 -4.82898e-05 
         400     0.052863    0.0204207  3.65509e-07  -4.8288e-05 
         400      0.06015    0.0232356  4.73224e-07 -4.82861e-05 
         400       0.0679    0.0262294  6.03025e-07  -4.8284e-05 
         400     0.076126    0.0294071  7.57989e-07 -4.82819e-05 
         400     0.084816    0.0327639   9.4092e-07 -4.82796e-05 
         400     0.093982    0.0363047  1.15528e-06 -4.82772e-05 
         400     0.103611    0.0400242  1.40414e-06 -4.82747e-05 
         400     0.113718    0.0439284  1.69143e-06 -4.82721e-05 
         400     0.124286    0.0480105  2.02041e-06 -4.82693e-05 
         400     0.135333    0.0522777  2.39553e-06 -4.82664e-05 
         400      0.14685    0.0567262  2.82058e-06 -4.82634e-05 
         400     0.158827    0.0613523   3.2994e-06 -4.82602e-05 
         400     0.171284    0.0661636   3.8372e-06  -4.8257e-05 
         400     0.184201    0.0711524  4.43771e-06 -4.82536e-05 
         400     0.197599    0.0763266  5.10665e-06 -4.82501e-05 
         400     0.211455    0.0816774  5.84779e-06 -4.82465e-05 
         400     0.225792    0.0872135  6.66746e-06 -4.82427e-05 
         400       0.2406    0.0929309  7.57041e-06 -4.82388e-05 
         400     0.255865    0.0988241  8.56114e-06 -4.82348e-05 
         400     0.271613     0.104903  9.64693e-06 -4.82307e-05 
         400     0.287818     0.111157  1.08317e-05 -4.82265e-05 
         400     0.304506     0.117597  1.21234e-05 -4.82221e-05 
         400      0.32165     0.124211  1.35259e-05 -4.82176e-05 
         400     0.339278     0.131011  1.50477e-05  -4.8213e-05 
         400     0.357377      0.13799  1.66942e-05 -4.82082e-05 
         400      0.37593     0.145142  1.84702e-05 -4.82033e-05 
         400     0.394968     0.152479  2.03855e-05 -4.81983e-05 
         400     0.414461     0.159988  2.24438e-05 -4.81932e-05 
         400      0.43444     0.167681  2.46554e-05 -4.81879e-05 
         400     0.454872     0.175544  2.70236e-05 -4.81825e-05 
         400     0.475791     0.183591  2.95595e-05  -4.8177e-05 
         400     0.497163     0.191806  3.22665e-05 -4.81714e-05 
         400     0.519021     0.200203  3.51561e-05 -4.81656e-05 
         400      0.54135     0.208774   3.8234e-05 -4.81596e-05 
         400     0.564131     0.217511  4.15049e-05 -4.81536e-05 
         400       0.5874     0.226426  4.49819e-05 -4.81474e-05 
         400     0.611121     0.235505  4.86671e-05 -4.81411e-05 
         400      0.63533     0.244761  5.25741e-05 -4.81346e-05 
         400      0.65999     0.254176  5.67046e-05  -4.8128e-05 
         400     0.685139     0.263765  6.10728e-05 -4.81212e-05 
         400     0.710759     0.273518  6.56838e-05 -4.81143e-05 
         400     0.736828     0.283425   7.0541e-05 -4.81073e-05 
         400     0.763387     0.293499    7.566e-05 -4.81001e-05 
         400     0.790396     0.303724  8.10407e-05 -4.80927e-05 
         400     0.817896     0.314111  8.66989e-05 -4.80852e-05 
         400     0.845843     0.324642   9.2633e-05 -4.80775e-05 
         400     0.874283      0.33533  9.88602e-05 -4.80697e-05 
         400      0.90317     0.346156  0.000105378 -4.80616e-05 
         400     0.932551     0.357132  0.000112202 -4.80534e-05 
         400     0.962401     0.368247  0.000119336 -4.80451e-05 
         400     0.992697     0.379486   0.00012678 -4.80365e-05 
         400      1.02349     0.390865   0.00013455 -4.80277e-05 
         400      1.05472     0.402359  0.000142642 -4.80188e-05 
         400      1.08645     0.413983  0.000151072 -4.80096e-05 
         400      1.11863     0.425711  0.000159832 -4.80002e-05 
         400       1.1513     0.437558  0.000168942 -4.79906e-05 
         400      1.18444     0.449507  0.000178396 -4.79808e-05 
         400      1.21802     0.461543  0.000188191 -4.79707e-05 
         400      1.25211     0.473678  0.000198345 -4.79604e-05 
         400      1.28663     0.485885  0.000208843 -4.79498e-05 
         400      1.32165     0.498176  0.000219703  -4.7939e-05 
         400      1.35712     0.510523  0.000230907 -4.79279e-05 
         400      1.39308     0.522937  0.000242473 -4.79165e-05 
         400      1.42951       0.5354   0.00025439 -4.79048e-05 
         400      1.46638     0.547892  0.000266646 -4.78928e-05 
         400      1.50375     0.560424  0.000279256 -4.78804e-05 
         400      1.54156     0.572965  0.000292194 -4.78678e-05 
         400      1.57987     0.585525  0.000305476 -4.78547e-05 
         400      1.61863     0.598072  0.000319073 -4.78414e-05 
         400      1.65788     0.610617  0.000332998 -4.78276e-05 
         400      1.69757     0.623125  0.000347218 -4.78135e-05 
         400      1.73776     0.635607  0.000361745 -4.77989e-05 
         400      1.77842     0.648039  0.000376555 -4.77839e-05 
         400      1.81952     0.660398  0.000391621 -4.77685e-05 
         400      1.86113     0.672692  0.000406953 -4.77527e-05 
         400      1.90316     0.684888  0.000422508 -4.77364e-05 
         400      1.94571     0.696992  0.000438293 -4.77196e-05 
         400      1.98869     0.708972  0.000454262 -4.77023e-05 
         400      2.03217     0.720832  0.000470421 -4.76845e-05 
         400      2.07612      0.73255  0.000486733 -4.76662e-05 
         400      2.12051     0.744104  0.000503162 -4.76473e-05 
         400       2.1654     0.755497  0.000519708 -4.76279e-05 
         400      2.21073     0.766699  0.000536318 -4.76079e-05 
         400      2.25656     0.777715  0.000552993 -4.75874e-05 
         400      2.30283     0.788513  0.000569677 -4.75662e-05 
         400       2.3496       0.7991  0.000586367 -4.75444e-05 
         400      2.39685     0.809454   0.00060302 -4.75221e-05 
         400      2.44452     0.819556  0.000619593 -4.74991e-05 
         400      2.49271      0.82941   0.00063608 -4.74755e-05 
         400      2.54132     0.838992  0.000652426 -4.74512e-05 
         400      2.59044     0.848306  0.000668624 -4.74263e-05 
         400         2.64     0.857329  0.000684617 -4.74007e-05 
         400      2.69006     0.866067  0.000700402 -4.73745e-05 
         400      2.74056       0.8745  0.000715922 -4.73476e-05 
         400      2.79156     0.882635  0.000731172   -4.732e-05 
         400      2.84304     0.890459  0.000746113 -4.72918e-05 
         400      2.89494     0.897962  0.000760705 -4.72629e-05 
         400      2.94735     0.905155  0.000774946 -4.72334e-05 
         400       3.0002     0.912022   0.00078879 -4.72032e-05 
         400      3.05355     0.918575  0.000802234 -4.71724e-05 
         400      3.10733     0.924803  0.000815239 -4.71409e-05 
         400      3.16163     0.930717  0.000827805 -4.71089e-05 
         400      3.21639     0.936315  0.000839907 -4.70763e-05 
         400      3.27158     0.941596  0.000851521  -4.7043e-05 
         400      3.32729     0.946573  0.000862654 -4.70089e-05 
         400      3.38342     0.951244  0.000873279 -4.69743e-05 
         400      3.44007     0.955623  0.000883408 -4.69391e-05 
         400      3.49714      0.95971   0.00089302 -4.69034e-05 
         400      3.55472      0.96352  0.000902128 -4.68671e-05 
         400      3.61273     0.967056  0.000910721 -4.68302e-05 
         400      3.67125     0.970333  0.000918814 -4.67928e-05 
         400      3.73025     0.973358  0.000926407 -4.67548e-05 
         400      3.78967     0.976141  0.000933503 -4.67163e-05 
         400      3.84961     0.978697  0.000940123 -4.66773e-05 
         400      3.90996     0.981032  0.000946269 -4.66378e-05 
         400      3.97084     0.983163  0.000951965 -4.65977e-05 
         400      4.03214     0.985098  0.000957218 -4.65572e-05 
         400      4.09395     0.986852  0.000962052 -4.65163e-05 
         400      4.15624     0.988435  0.000966482 -4.64749e-05 
         400      4.21895     0.989857  0.000970525 -4.64331e-05 
         400      4.28217     0.991133  0.000974205 -4.63908e-05 
         400      4.34582     0.992271  0.000977539 -4.63482e-05 
         400      4.40998     0.993285  0.000980552 -4.63051e-05 
         400      4.47457     0.994183   0.00098326 -4.62617e-05 
         400      4.53968     0.994976  0.000985689 -4.62178e-05 
         400      4.60525     0.995674  0.000987857 -4.61735e-05 
         400      4.67125     0.996284  0.000989783  -4.6129e-05 
         400      4.73777     0.996818   0.00099149  -4.6084e-05 
         400       4.8047     0.997281  0.000992994 -4.60386e-05 
         400      4.87216     0.997682  0.000994316 -4.59929e-05 
         400      4.94003     0.998028  0.000995471 -4.59469e-05 
         400      5.00843     0.998325  0.000996478 -4.59004e-05 
         400      5.07724     0.998578  0.000997351 -4.58537e-05 
         400      5.14658     0.998794  0.000998105 -4.58066e-05 
         400      5.21639     0.998977  0.000998754 -4.57591e-05 
         400      5.28661     0.999131  0.000999309 -4.57115e-05 
         400      5.35736     0.999261  0.000999782 -4.56634e-05 
         400      5.42852     0.999369   0.00100018  -4.5615e-05 
         400      5.50021     0.999459   0.00100052 -4.55662e-05 
         400      5.57231     0.999533   0.00100081 -4.55172e-05 
         400      5.64493     0.999595   0.00100105 -4.54677e-05 
         400      5.71803     0.999645   0.00100125 -4.54179e-05 
         400      5.79154     0.999686   0.00100142 -4.53678e-05 
         400      5.86558      0.99972   0.00100156 -4.53174e-05 
         400      5.94003     0.999746   0.00100167 -4.52669e-05 
         400      6.01501     0.999768   0.00100176 -4.52159e-05 
         400       6.0904     0.999786   0.00100184 -4.51646e-05 
         400      6.16632     0.999799   0.00100191 -4.51129e-05 
         400      6.24271      0.99981   0.00100196 -4.50608e-05 
         400       6.3195     0.999819     0.001002 -4.50085e-05 
         400      6.39683     0.999826   0.00100204 -4.49558e-05 
         400      6.47457     0.999831   0.00100207 -4.49029e-05 
         400      6.55284     0.999835    0.0010021 -4.48496e-05 
         400      6.63152     0.999839   0.00100212 -4.47961e-05 
         400      6.71073     0.999841   0.00100213 -4.47421e-05 
         400      6.79034     0.999843   0.00100215 -4.46879e-05 
         400      6.87049     0.999845   0.00100217 -4.46333e-05 
         400      6.95111     0.999846   0.00100218 -4.45784e-05 
         400      7.03214     0.999847   0.00100219 -4.45232e-05 
         400       7.1137     0.999848    0.0010022 -4.44677e-05 
         400      7.19566     0.999848   0.00100221 -4.44119e-05 
         400      7.27816     0.999849   0.00100222 -4.43558e-05 
         400      7.36106     0.999849   0.00100223 -4.42994e-05 
         400      7.44451      0.99985   0.00100224 -4.42426e-05 
         400      7.52842      0.99985   0.00100225 -4.41856e-05 
         400      7.61273      0.99985   0.00100226 -4.41283e-05 
         400      7.69758      0.99985   0.00100226 -4.40707e-05 
         400      7.78283     0.999851   0.00100227 -4.40128e-05 
         400      7.86862     0.999851   0.00100228 -4.39544e-05 
         400      7.95481     0.999851   0.00100229 -4.38958e-05 
         400      8.04155     0.999851    0.0010023 -4.38369e-05 
         400      8.12868     0.999852   0.00100231 -4.37776e-05 
         400      8.21635     0.999852   0.00100231  -4.3718e-05 
         400      8.30449     0.999852   0.00100232  -4.3658e-05 
         400      8.39303     0.999852   0.00100233 -4.35978e-05 
         400      8.48211     0.999853   0.00100234 -4.35373e-05 
         400      8.57159     0.999853   0.00100235 -4.34764e-05 
         400      8.66161     0.999853   0.00100236 -4.34153e-05 
         400      8.75203     0.999853   0.00100237 -4.33539e-05 
         400      8.84299     0.999853   0.00100238 -4.32922e-05 
         400      8.93443     0.999854   0.00100239 -4.32303e-05 
         400      9.02626     0.999854   0.00100239 -4.31682e-05 
         400      9.11863     0.999854    0.0010024 -4.31058e-05 
         400      9.21139     0.999854   0.00100241 -4.30433e-05 
         400      9.30471     0.999855   0.00100242 -4.29803e-05 
         400      9.39841     0.999855   0.00100242 -4.29154e-05 
         400      9.49267     0.999855   0.00100243 -4.28495e-05 
         400      9.58739     0.999855   0.00100244 -4.27835e-05 
         400      9.68251     0.999856   0.00100245 -4.27179e-05 
         400      9.77817     0.999856   0.00100246 -4.26523e-05 
         400      9.87422     0.999856   0.00100247 -4.25866e-05 
         400      9.97083     0.999856   0.00100248 -4.25207e-05 
         400      10.0678     0.999857   0.00100249 -4.24546e-05 
         400      10.1654     0.999857    0.0010025 -4.23881e-05 
         400      10.2633     0.999857   0.00100251 -4.23214e-05 
         400      10.3618     0.999857   0.00100252 -4.22541e-05 
         400      10.4607     0.999858   0.00100253 -4.21866e-05 
         400      10.5601     0.999858   0.00100254 -4.21187e-05 
         400        10.66     0.999858   0.00100255 -4.20505e-05 
         400      10.7603     0.999858   0.00100256  -4.1982e-05 
         400      10.8611     0.999859   0.00100256 -4.19132e-05 
         400      10.9623     0.999859   0.00100257 -4.18441e-05 
         400      11.0641     0.999859   0.00100258 -4.17746e-05 
         400      11.1663     0.999859   0.00100259 -4.17047e-05 
         400       11.269      0.99986    0.0010026 -4.16348e-05 
         400      11.3721      0.99986   0.00100261 -4.15645e-05 
         400      11.4757      0.99986   0.00100262 -4.14937e-05 
         400      11.5798      0.99986   0.00100263 -4.14225e-05 
         400      11.6844     0.999861   0.00100264 -4.13513e-05 
         400      11.7894     0.999861   0.00100265 -4.12795e-05 
         400       11.895     0.999861   0.00100266 -4.12073e-05 
         400      12.0009     0.999861   0.00100267 -4.11347e-05 
         400      12.1073     0.999862   0.00100268 -4.10623e-05 
         400      12.2142     0.999862   0.00100269 -4.09893e-05 
         400      12.3216     0.999862    0.0010027  -4.0916e-05 
         400      12.4294     0.999863   0.00100271 -4.08424e-05 
         400      12.5378     0.999863   0.00100272 -4.07684e-05 
         400      12.6465     0.999863   0.00100273  -4.0694e-05 
         400      12.7558     0.999863   0.00100274 -4.06193e-05 
         400      12.8656     0.999864   0.00100275 -4.05443e-05 
         400      12.9757     0.999864   0.00100276  -4.0469e-05 
         400      13.0864     0.999864   0.00100277 -4.03934e-05 
         400      13.1975     0.999864   0.00100278 -4.03176e-05 
         400      13.3092     0.999865   0.00100279 -4.02414e-05 
         400      13.4212     0.999865    0.0010028  -4.0165e-05 
         400      13.5338     0.999865   0.00100281 -4.00881e-05 
         400      13.6468     0.999866   0.00100282 -4.00108e-05 
         400      13.7603     0.999866   0.00100283 -3.99332e-05 
         400      13.8743     0.999866   0.00100284 -3.98552e-05 
         400      13.9886     0.999866   0.00100285 -3.97768e-05 
         400      14.1036     0.999867   0.00100286 -3.96979e-05 
         400      14.2189     0.999867   0.00100287 -3.96189e-05 
         400      14.3348     0.999867   0.00100288 -3.95397e-05 
         400       14.451     0.999868   0.00100289 -3.94601e-05 
         400      14.5678     0.999868    0.0010029 -3.93803e-05 
         400      14.6851     0.999868   0.00100291    -3.93e-05 
         400      14.8028     0.999868   0.00100292 -3.92193e-05 
         400       14.921     0.999869   0.00100293 -3.91384e-05 
         400      15.0396     0.999869   0.00100294 -3.90573e-05 
         400      15.1588     0.999869   0.00100295 -3.89759e-05 
         400      15.2783      0.99987   0.00100296 -3.88943e-05 
         400      15.3984      0.99987   0.00100297  -3.8812e-05 
         400       15.519      0.99987   0.00100298 -3.87291e-05 
         400        15.64      0.99987   0.00100299 -3.86463e-05 
         400      15.7615     0.999871     0.001003 -3.85634e-05 
         400      15.8834     0.999871   0.00100301   -3.848e-05 
         400      16.0058     0.999871   0.00100302 -3.83961e-05 
         400      16.1286     0.999872   0.00100304  -3.8312e-05 
         400       16.252     0.999872   0.00100305 -3.82275e-05 
         400      16.3759     0.999872   0.00100306 -3.81427e-05 
         400      16.5002     0.999873   0.00100307 -3.80577e-05 
         400       16.625     0.999873   0.00100308 -3.79722e-05 
         400      16.7501     0.999873   0.00100309 -3.78866e-05 
         400      16.8759     0.999873    0.0010031 -3.78005e-05 
         400       17.002     0.999874   0.00100311 -3.77142e-05 
         400      17.1287     0.999874   0.00100312 -3.76275e-05 
         400      17.2557     0.999874   0.00100313 -3.75404e-05 
         400      17.3834     0.999875   0.00100314  -3.7453e-05 
         400      17.5115     0.999875   0.00100315 -3.73653e-05 
         400      17.6399     0.999875   0.00100316 -3.72774e-05 
         400       17.769     0.999876   0.00100317 -3.71892e-05 
         400      17.8984     0.999876   0.00100318 -3.71007e-05 
         400      18.0284     0.999876    0.0010032 -3.70118e-05 
         400      18.1587     0.999877   0.00100321 -3.69226e-05 
         400      18.2896     0.999877   0.00100322 -3.68329e-05 
         400       18.421     0.999877   0.00100323 -3.67427e-05 
         400      18.5528     0.999878   0.00100324 -3.66523e-05 
         400      18.6851     0.999878   0.00100325 -3.65614e-05 
         400      18.8178     0.999878   0.00100326 -3.64705e-05 
         400      18.9511     0.999878   0.00100327 -3.63794e-05 
         400      19.0847     0.999879   0.00100328 -3.62884e-05 
         400      19.2189     0.999879   0.00100329 -3.61971e-05 
         400      19.3535     0.999879    0.0010033  -3.6105e-05 
         400      19.4886      0.99988   0.00100331 -3.60124e-05 
         400      19.6242      0.99988   0.00100332 -3.59191e-05 
         400      19.7602      0.99988   0.00100333 -3.58262e-05 
         400      19.8968     0.999881   0.00100335 -3.57328e-05 
         400      20.0337     0.999881   0.00100335 -3.56365e-05 
         400      20.1712     0.999881   0.00100337 -3.55419e-05 
         400      20.3091     0.999882   0.00100338 -3.54474e-05 
         400      20.4475     0.999882   0.00100339  -3.5352e-05 
         400      20.5864     0.999882    0.0010034 -3.52562e-05 
         400      20.7257     0.999883   0.00100341 -3.51602e-05 
         400      20.8655     0.999883   0.00100342 -3.50641e-05 
         400      21.0058     0.999883   0.00100343 -3.49681e-05 
         400      21.1465     0.999884   0.00100345 -3.48718e-05 
         400      21.2877     0.999884   0.00100346 -3.47754e-05 
         400      21.4294     0.999884   0.00100347 -3.46784e-05 
         400      21.5716     0.999885   0.00100348 -3.45809e-05 
         400      21.7142     0.999885   0.00100349 -3.44829e-05 
         400      21.8573     0.999885    0.0010035 -3.43843e-05 
         400      22.0008     0.999886   0.00100351 -3.42854e-05 
         400      22.1449     0.999886   0.00100352 -3.41862e-05 
         400      22.2893     0.999886   0.00100354  -3.4087e-05 
         400      22.4344     0.999887   0.00100355 -3.39872e-05 
         400      22.5797     0.999887   0.00100356 -3.38872e-05 
         400      22.7257     0.999887   0.00100357 -3.37877e-05 
         400      22.8721     0.999888   0.00100358 -3.36874e-05 
         400      23.0189     0.999888   0.00100359 -3.35869e-05 
         400      23.1663     0.999889    0.0010036  -3.3486e-05 
         400       23.314     0.999889   0.00100361 -3.33846e-05 
         400      23.4623     0.999889   0.00100362 -3.32823e-05 
         400       23.611      0.99989   0.00100364 -3.31795e-05 
         400      23.7602      0.99989   0.00100365  -3.3076e-05 
         400        23.91      0.99989   0.00100366 -3.29726e-05 
         400        24.06     0.999891   0.00100367 -3.28697e-05 
         400      24.2107     0.999891   0.00100368 -3.27676e-05 
         400      24.3617     0.999891   0.00100369 -3.26662e-05 
         400      24.5133     0.999892   0.00100371 -3.25642e-05 
         400      24.6653     0.999892   0.00100371 -3.24588e-05 
         400      24.8178     0.999892   0.00100372 -3.23504e-05 
         400      24.9708     0.999893   0.00100373 -3.22489e-05 
         400      25.1242     0.999893   0.00100375 -3.21441e-05 
         400      25.2781     0.999893   0.00100376 -3.20364e-05 
         400      25.4324     0.999894   0.00100377 -3.19259e-05 
         400      25.5873     0.999894   0.00100378 -3.18155e-05 
         400      25.7426     0.999895   0.00100378 -3.17147e-05 
         400      25.8984     0.999895   0.00100379 -3.16103e-05 
         400      26.0546     0.999895   0.00100381 -3.15039e-05 
         400      26.2114     0.999896   0.00100382 -3.13962e-05 
         400      26.3686     0.999896   0.00100383  -3.1288e-05 
         400      26.5262     0.999896   0.00100385 -3.11795e-05 
         400      26.6844     0.999897   0.00100386 -3.10709e-05 
         400      26.8429     0.999897   0.00100387 -3.09623e-05 
         400       27.002     0.999898   0.00100388 -3.08535e-05 
         400      27.1615     0.999898   0.00100389 -3.07463e-05 
         400      27.3216     0.999898   0.00100389 -3.06384e-05 
         400      27.4821     0.999898    0.0010039 -3.05297e-05 
         400       27.643     0.999899   0.00100392 -3.04205e-05 
         400      27.8044     0.999899   0.00100393 -3.03107e-05 
         400      27.9663       0.9999   0.00100395 -3.02004e-05 
         400      28.1287       0.9999   0.00100396 -3.00895e-05 
         400      28.2914     0.999901   0.00100397 -2.99781e-05 
         400      28.4548     0.999901   0.00100397 -2.98661e-05 
         400      28.6185     0.999901   0.00100398 -2.97536e-05 
         400      28.7828     0.999902   0.00100399 -2.96409e-05 
         400      28.9475     0.999902   0.00100401 -2.95283e-05 
         400      29.1126     0.999902   0.00100403 -2.94166e-05 
         400      29.2784     0.999903   0.00100402 -2.93062e-05 
         400      29.4444     0.999903   0.00100404 -2.91913e-05 
         400       29.611     0.999904   0.00100405 -2.90763e-05 
         400       29.778     0.999904   0.00100406 -2.89612e-05 
         400      29.9456     0.999904   0.00100406 -2.88455e-05 
         400      30.1137     0.999905   0.00100408 -2.87293e-05 
         400      30.2821     0.999905   0.00100409 -2.86127e-05 
         400      30.4511     0.999905    0.0010041 -2.84954e-05 
         400      30.6204     0.999906   0.00100411  -2.8376e-05 
         400      30.7903     0.999906   0.00100413  -2.8254e-05 
         400      30.9606     0.999907   0.00100414 -2.81351e-05 
         400      31.1315     0.999907   0.00100414 -2.80176e-05 
         400      31.3028     0.999907   0.00100414 -2.79005e-05 
         400      31.4745     0.999908   0.00100415 -2.77832e-05 
         400      31.6468     0.999908   0.00100417 -2.76652e-05 
         400      31.8194     0.999908   0.00100419 -2.75468e-05 
         400      31.9926     0.999909    0.0010042 -2.74277e-05 
         400      32.1662     0.999909   0.00100421 -2.73081e-05 
         400      32.3404      0.99991   0.00100422 -2.71878e-05 
         400      32.5149      0.99991   0.00100423  -2.7067e-05 
         400        32.69      0.99991   0.00100424 -2.69455e-05 
         400      32.8655     0.999911   0.00100426 -2.68237e-05 
         400      33.0414     0.999911   0.00100427 -2.67023e-05 
         400       33.218     0.999912   0.00100425 -2.65824e-05 
         400      33.3948     0.999912   0.00100429 -2.64595e-05 
         400      33.5723     0.999912   0.00100429 -2.63384e-05 
         400        33.75     0.999913    0.0010043 -2.62174e-05 
         400      33.9284     0.999913   0.00100431 -2.60955e-05 
         400      34.1073     0.999914   0.00100432 -2.59727e-05 
         400      34.2865     0.999914   0.00100434 -2.58491e-05 
         400      34.4663     0.999915   0.00100435 -2.57249e-05 
         400      34.6465     0.999915   0.00100436 -2.56005e-05 
         400      34.8272     0.999915   0.00100437  -2.5476e-05 
         400      35.0083     0.999916   0.00100438 -2.53514e-05 
         400        35.19     0.999916   0.00100438 -2.52266e-05 
         400      35.3721     0.999916   0.00100439 -2.51015e-05 
         400      35.5546     0.999917    0.0010044  -2.4976e-05 
         400      35.7377     0.999917   0.00100442 -2.48496e-05 
         400      35.9211     0.999918   0.00100444 -2.47227e-05 
         400      36.1052     0.999918   0.00100445 -2.45949e-05 
         400      36.2895     0.999919   0.00100446 -2.44669e-05 
         400      36.4745     0.999919   0.00100447 -2.43387e-05 
         400      36.6598     0.999919   0.00100448 -2.42108e-05 
         400      36.8457      0.99992   0.00100448 -2.40832e-05 
         400      37.0321      0.99992   0.00100448 -2.39557e-05 
         400      37.2188     0.999921   0.00100453 -2.38226e-05 
         400      37.4062     0.999921   0.00100449 -2.36922e-05 
         400      37.5938     0.999921   0.00100453 -2.35609e-05 
         400      37.7821     0.999922   0.00100455 -2.34323e-05 
         400      37.9707     0.999922   0.00100456 -2.33044e-05 
         400      38.1599     0.999923   0.00100456  -2.3176e-05 
         400      38.3496     0.999923   0.00100456 -2.30468e-05 
         400      38.5396     0.999924   0.00100456 -2.29168e-05 
         400      38.7302     0.999924   0.00100457 -2.27862e-05 
         400      38.9211     0.999924   0.00100459 -2.26552e-05 
         400      39.1127     0.999925   0.00100461 -2.25238e-05 
         400      39.3046     0.999925   0.00100462 -2.23922e-05 
         400      39.4971     0.999926   0.00100464 -2.22602e-05 
         400      39.6899     0.999926   0.00100465 -2.21279e-05 
         400      39.8833     0.999927   0.00100466 -2.19948e-05 
         400      40.0772     0.999927   0.00100466 -2.18611e-05 
         400      40.2714     0.999927   0.00100467 -2.17267e-05 
         400      40.4663     0.999928   0.00100468 -2.15917e-05 
         400      40.6615     0.999928   0.00100469 -2.14565e-05 
         400      40.8573     0.999929    0.0010047 -2.13212e-05 
         400      41.0534     0.999929   0.00100472 -2.11865e-05 
         400      41.2501      0.99993   0.00100472  -2.1052e-05 
         400      41.4473      0.99993   0.00100472 -2.09171e-05 
         400      41.6448     0.999931   0.00100474 -2.07804e-05 
         400      41.8429     0.999931   0.00100476 -2.06422e-05 
         400      42.0414     0.999931   0.00100475 -2.05071e-05 
         400      42.2405     0.999932   0.00100476 -2.03694e-05 
         400      42.4399     0.999932   0.00100477 -2.02306e-05 
         400      42.6399     0.999933   0.00100479 -2.00914e-05 
         400      42.8404     0.999933    0.0010048 -1.99522e-05 
         400      43.0412     0.999934   0.00100481 -1.98133e-05 
         400      43.2426     0.999934   0.00100481 -1.96744e-05 
         400      43.4444     0.999934   0.00100482 -1.95356e-05 
         400      43.6467     0.999935   0.00100482 -1.93964e-05 
         400      43.8494     0.999935   0.00100483 -1.92568e-05 
         400      44.0527     0.999936   0.00100484 -1.91164e-05 
         400      44.2563     0.999936   0.00100486 -1.89753e-05 
         400      44.4606     0.999937   0.00100487 -1.88333e-05 
         400      44.6653     0.999937   0.00100488 -1.86904e-05 
         400      44.8704     0.999938   0.00100489 -1.85472e-05 
         400       45.076     0.999938    0.0010049 -1.84037e-05 
         400       45.282     0.999938    0.0010049  -1.8261e-05 
         400      45.4886     0.999939   0.00100491 -1.81182e-05 
         400      45.6955     0.999939   0.00100492 -1.79748e-05 
         400       45.903      0.99994   0.00100493 -1.78318e-05 
         400      46.1111      0.99994   0.00100494 -1.76889e-05 
         400      46.3194     0.999941   0.00100495 -1.75458e-05 
         400      46.5283     0.999941   0.00100495 -1.74019e-05 
         400      46.7376     0.999942   0.00100496 -1.72574e-05 
         400      46.9475     0.999942   0.00100497 -1.71122e-05 
         400      47.1577     0.999943   0.00100498 -1.69665e-05 
         400      47.3685     0.999943   0.00100499 -1.68199e-05 
         400      47.5798     0.999943     0.001005 -1.66721e-05 
         400      47.7914     0.999944   0.00100501 -1.65272e-05 
         400      48.0037     0.999945   0.00100502 -1.63822e-05 