Variables = x, y, u, v, p

Zone, I=800, F=POINT
         -25            0   2.9219e-18 -6.36178e-32 -0.000178315 
         -25     0.000234  0.000138845  2.60736e-11 -0.000178315 
         -25     0.000939   0.00055716  4.19857e-10 -0.000178314 
         -25     0.002113   0.00125376  2.12603e-09 -0.000178313 
         -25     0.003759   0.00223042  6.72844e-09 -0.000178311 
         -25     0.005872   0.00348419  1.64188e-08 -0.000178309 
         -25     0.008457   0.00501802  3.40567e-08 -0.000178307 
         -25      0.01151   0.00682955  6.30843e-08 -0.000178304 
         -25     0.015036   0.00892175  1.07655e-07 -0.000178301 
         -25     0.019031    0.0112922  1.72462e-07 -0.000178297 
         -25     0.023493    0.0139399  2.62814e-07 -0.000178293 
         -25     0.028429    0.0168687  3.84852e-07 -0.000178288 
         -25     0.033831    0.0200741  5.45005e-07 -0.000178283 
         -25     0.039706    0.0235602  7.50729e-07 -0.000178277 
         -25     0.046047    0.0273228  1.00966e-06 -0.000178271 
         -25     0.052863    0.0313672  1.33068e-06 -0.000178265 
         -25      0.06015    0.0356912  1.72282e-06 -0.000178258 
         -25       0.0679    0.0402898  2.19536e-06  -0.00017825 
         -25     0.076126    0.0451708  2.75949e-06 -0.000178243 
         -25     0.084816    0.0503271  3.42543e-06 -0.000178234 
         -25     0.093982    0.0557657  4.20575e-06 -0.000178226 
         -25     0.103611    0.0614789  5.11162e-06 -0.000178216 
         -25     0.113718    0.0674754  6.15738e-06 -0.000178207 
         -25     0.124286    0.0737451  7.35479e-06 -0.000178197 
         -25     0.135333    0.0802986  8.72004e-06 -0.000178186 
         -25      0.14685    0.0871303  1.02669e-05 -0.000178175 
         -25     0.158827    0.0942341  1.20093e-05 -0.000178164 
         -25     0.171284     0.101622  1.39662e-05 -0.000178152 
         -25     0.184201     0.109281  1.61508e-05  -0.00017814 
         -25     0.197599     0.117223   1.8584e-05 -0.000178127 
         -25     0.211455     0.125435  2.12794e-05 -0.000178114 
         -25     0.225792      0.13393  2.42597e-05   -0.0001781 
         -25       0.2406     0.142701  2.75418e-05 -0.000178086 
         -25     0.255865     0.151739   3.1142e-05 -0.000178071 
         -25     0.271613     0.161059  3.50862e-05 -0.000178056 
         -25     0.287818     0.170644  3.93882e-05  -0.00017804 
         -25     0.304506     0.180508   4.4076e-05 -0.000178024 
         -25      0.32165     0.190635  4.91631e-05 -0.000178008 
         -25     0.339278     0.201039  5.46796e-05 -0.000177991 
         -25     0.357377      0.21171  6.06437e-05 -0.000177973 
         -25      0.37593     0.222637   6.7072e-05 -0.000177955 
         -25     0.394968     0.233836  7.39977e-05 -0.000177937 
         -25     0.414461     0.245287  8.14327e-05 -0.000177918 
         -25      0.43444     0.257004  8.94118e-05 -0.000177899 
         -25     0.454872     0.268965  9.79447e-05 -0.000177879 
         -25     0.475791     0.281187  0.000107069 -0.000177858 
         -25     0.497163     0.293646  0.000116791 -0.000177837 
         -25     0.519021     0.306355  0.000127151 -0.000177815 
         -25      0.54135     0.319303  0.000138162 -0.000177793 
         -25     0.564131     0.332471  0.000149838  -0.00017777 
         -25       0.5874     0.345875  0.000162217 -0.000177746 
         -25     0.611121     0.359487  0.000175302 -0.000177722 
         -25      0.63533     0.373321   0.00018913 -0.000177698 
         -25      0.65999     0.387347    0.0002037 -0.000177672 
         -25     0.685139     0.401578  0.000219051 -0.000177646 
         -25     0.710759     0.415995  0.000235188 -0.000177619 
         -25     0.736828     0.430575  0.000252111 -0.000177591 
         -25     0.763387     0.445328  0.000269859 -0.000177562 
         -25     0.790396     0.460222  0.000288414 -0.000177533 
         -25     0.817896     0.475266  0.000307813 -0.000177503 
         -25     0.845843     0.490422  0.000328028 -0.000177471 
         -25     0.874283     0.505699  0.000349097 -0.000177439 
         -25      0.90317     0.521058  0.000370982 -0.000177406 
         -25     0.932551     0.536507  0.000393716 -0.000177371 
         -25     0.962401     0.552013   0.00041727 -0.000177336 
         -25     0.992697     0.567548  0.000441616 -0.000177299 
         -25      1.02349     0.583116  0.000466774 -0.000177261 
         -25      1.05472     0.598671  0.000492684 -0.000177222 
         -25      1.08645     0.614217  0.000519363 -0.000177181 
         -25      1.11863     0.629707  0.000546737 -0.000177139 
         -25       1.1513     0.645141  0.000574815 -0.000177095 
         -25      1.18444     0.660485  0.000603535  -0.00017705 
         -25      1.21802       0.6757  0.000632828 -0.000177003 
         -25      1.25211     0.690787  0.000662691 -0.000176955 
         -25      1.28663     0.705695  0.000693019 -0.000176904 
         -25      1.32165     0.720425  0.000723802 -0.000176852 
         -25      1.35712     0.734924  0.000754923 -0.000176798 
         -25      1.39308     0.749192  0.000786363 -0.000176742 
         -25      1.42951     0.763191  0.000818021 -0.000176684 
         -25      1.46638     0.776885  0.000849793 -0.000176624 
         -25      1.50375     0.790271  0.000881647 -0.000176561 
         -25      1.54156     0.803306  0.000913448 -0.000176497 
         -25      1.57987     0.815986  0.000945157  -0.00017643 
         -25      1.61863      0.82827  0.000976635 -0.000176361 
         -25      1.65788     0.840159   0.00100784 -0.000176289 
         -25      1.69757     0.851614   0.00103863 -0.000176215 
         -25      1.73776     0.862638   0.00106897 -0.000176139 
         -25      1.77842     0.873207   0.00109874  -0.00017606 
         -25      1.81952       0.8833   0.00112783 -0.000175979 
         -25      1.86113     0.892924   0.00115621 -0.000175896 
         -25      1.90316     0.902057   0.00118375  -0.00017581 
         -25      1.94571     0.910708   0.00121043 -0.000175722 
         -25      1.98869      0.91886   0.00123612 -0.000175631 
         -25      2.03217     0.926527   0.00126082 -0.000175538 
         -25      2.07612     0.933706   0.00128445 -0.000175443 
         -25      2.12051     0.940396   0.00130695 -0.000175345 
         -25       2.1654     0.946617   0.00132831 -0.000175245 
         -25      2.21073     0.952368   0.00134848 -0.000175143 
         -25      2.25656     0.957671   0.00136747 -0.000175039 
         -25      2.30283     0.962534   0.00138524 -0.000174932 
         -25       2.3496     0.966979   0.00140182 -0.000174824 
         -25      2.39685     0.971022    0.0014172 -0.000174713 
         -25      2.44452     0.974678   0.00143139 -0.000174601 
         -25      2.49271     0.977975   0.00144445 -0.000174487 
         -25      2.54132     0.980928   0.00145637 -0.000174371 
         -25      2.59044     0.983565   0.00146723 -0.000174253 
         -25         2.64     0.985904   0.00147705 -0.000174134 
         -25      2.69006      0.98797    0.0014859 -0.000174012 
         -25      2.74056     0.989784   0.00149381 -0.000173889 
         -25      2.79156      0.99137   0.00150086 -0.000173766 
         -25      2.84304     0.992747    0.0015071  -0.00017364 
         -25      2.89494     0.993936   0.00151259 -0.000173513 
         -25      2.94735     0.994958    0.0015174 -0.000173384 
         -25       3.0002      0.99583   0.00152158 -0.000173254 
         -25      3.05355      0.99657    0.0015252 -0.000173122 
         -25      3.10733     0.997194   0.00152831 -0.000172989 
         -25      3.16163     0.997718   0.00153097 -0.000172854 
         -25      3.21639     0.998154   0.00153323 -0.000172719 
         -25      3.27158     0.998514   0.00153513 -0.000172582 
         -25      3.32729      0.99881   0.00153673 -0.000172444 
         -25      3.38342     0.999052   0.00153806 -0.000172305 
         -25      3.44007     0.999248   0.00153917 -0.000172164 
         -25      3.49714     0.999406   0.00154008 -0.000172023 
         -25      3.55472     0.999532   0.00154083  -0.00017188 
         -25      3.61273     0.999632   0.00154144 -0.000171736 
         -25      3.67125     0.999711   0.00154193  -0.00017159 
         -25      3.73025     0.999773   0.00154234 -0.000171444 
         -25      3.78967     0.999821   0.00154266 -0.000171296 
         -25      3.84961     0.999858   0.00154292 -0.000171147 
         -25      3.90996     0.999886   0.00154314 -0.000170998 
         -25      3.97084     0.999907   0.00154331 -0.000170846 
         -25      4.03214     0.999923   0.00154345 -0.000170694 
         -25      4.09395     0.999935   0.00154356  -0.00017054 
         -25      4.15624     0.999944   0.00154366 -0.000170386 
         -25      4.21895      0.99995   0.00154374  -0.00017023 
         -25      4.28217     0.999955   0.00154382 -0.000170073 
         -25      4.34582     0.999959   0.00154388 -0.000169915 
         -25      4.40998     0.999961   0.00154393 -0.000169755 
         -25      4.47457     0.999963   0.00154399 -0.000169595 
         -25      4.53968     0.999964   0.00154404 -0.000169433 
         -25      4.60525     0.999965   0.00154408  -0.00016927 
         -25      4.67125     0.999966   0.00154413 -0.000169106 
         -25      4.73777     0.999966   0.00154417 -0.000168941 
         -25       4.8047     0.999966   0.00154421 -0.000168775 
         -25      4.87216     0.999967   0.00154426 -0.000168607 
         -25      4.94003     0.999967    0.0015443 -0.000168439 
         -25      5.00843     0.999967   0.00154434 -0.000168269 
         -25      5.07724     0.999967   0.00154438 -0.000168098 
         -25      5.14658     0.999967   0.00154443 -0.000167925 
         -25      5.21639     0.999967   0.00154447 -0.000167752 
         -25      5.28661     0.999967   0.00154451 -0.000167578 
         -25      5.35736     0.999967   0.00154456 -0.000167402 
         -25      5.42852     0.999967    0.0015446 -0.000167225 
         -25      5.50021     0.999967   0.00154464 -0.000167046 
         -25      5.57231     0.999967   0.00154469 -0.000166867 
         -25      5.64493     0.999967   0.00154473 -0.000166687 
         -25      5.71803     0.999968   0.00154477 -0.000166506 
         -25      5.79154     0.999968   0.00154482 -0.000166323 
         -25      5.86558     0.999968   0.00154486 -0.000166139 
         -25      5.94003     0.999968   0.00154491 -0.000165954 
         -25      6.01501     0.999968   0.00154495 -0.000165767 
         -25       6.0904     0.999968     0.001545  -0.00016558 
         -25      6.16632     0.999968   0.00154504 -0.000165392 
         -25      6.24271     0.999968   0.00154509 -0.000165202 
         -25       6.3195     0.999968   0.00154514 -0.000165011 
         -25      6.39683     0.999968   0.00154518 -0.000164818 
         -25      6.47457     0.999968   0.00154523 -0.000164625 
         -25      6.55284     0.999968   0.00154527 -0.000164431 
         -25      6.63152     0.999968   0.00154532 -0.000164236 
         -25      6.71073     0.999968   0.00154537 -0.000164039 
         -25      6.79034     0.999968   0.00154542 -0.000163841 
         -25      6.87049     0.999968   0.00154546 -0.000163643 
         -25      6.95111     0.999969   0.00154551 -0.000163442 
         -25      7.03214     0.999969   0.00154556 -0.000163241 
         -25       7.1137     0.999969   0.00154561 -0.000163038 
         -25      7.19566     0.999969   0.00154565 -0.000162835 
         -25      7.27816     0.999969    0.0015457  -0.00016263 
         -25      7.36106     0.999969   0.00154575 -0.000162424 
         -25      7.44451     0.999969    0.0015458 -0.000162216 
         -25      7.52842     0.999969   0.00154585 -0.000162008 
         -25      7.61273     0.999969    0.0015459 -0.000161798 
         -25      7.69758     0.999969   0.00154595 -0.000161587 
         -25      7.78283     0.999969     0.001546 -0.000161375 
         -25      7.86862     0.999969   0.00154605 -0.000161162 
         -25      7.95481     0.999969    0.0015461 -0.000160948 
         -25      8.04155     0.999969   0.00154615 -0.000160733 
         -25      8.12868     0.999969    0.0015462 -0.000160517 
         -25      8.21635     0.999969   0.00154625 -0.000160299 
         -25      8.30449      0.99997    0.0015463  -0.00016008 
         -25      8.39303      0.99997   0.00154635  -0.00015986 
         -25      8.48211      0.99997    0.0015464 -0.000159639 
         -25      8.57159      0.99997   0.00154645 -0.000159416 
         -25      8.66161      0.99997    0.0015465 -0.000159192 
         -25      8.75203      0.99997   0.00154656 -0.000158967 
         -25      8.84299      0.99997   0.00154661 -0.000158741 
         -25      8.93443      0.99997   0.00154666 -0.000158514 
         -25      9.02626      0.99997   0.00154671 -0.000158286 
         -25      9.11863      0.99997   0.00154676 -0.000158057 
         -25      9.21139      0.99997   0.00154682 -0.000157826 
         -25      9.30471      0.99997   0.00154687 -0.000157594 
         -25      9.39841      0.99997   0.00154692 -0.000157361 
         -25      9.49267      0.99997   0.00154698 -0.000157127 
         -25      9.58739      0.99997   0.00154703 -0.000156891 
         -25      9.68251     0.999971   0.00154708 -0.000156655 
         -25      9.77817     0.999971   0.00154713 -0.000156418 
         -25      9.87422     0.999971   0.00154719  -0.00015618 
         -25      9.97083     0.999971   0.00154724  -0.00015594 
         -25      10.0678     0.999971   0.00154729 -0.000155699 
         -25      10.1654     0.999971   0.00154735 -0.000155457 
         -25      10.2633     0.999971    0.0015474 -0.000155214 
         -25      10.3618     0.999971   0.00154746  -0.00015497 
         -25      10.4607     0.999971   0.00154751 -0.000154724 
         -25      10.5601     0.999971   0.00154757 -0.000154478 
         -25        10.66     0.999971   0.00154762  -0.00015423 
         -25      10.7603     0.999971   0.00154768  -0.00015398 
         -25      10.8611     0.999971   0.00154773 -0.000153731 
         -25      10.9623     0.999971   0.00154779 -0.000153479 
         -25      11.0641     0.999972   0.00154784 -0.000153226 
         -25      11.1663     0.999972    0.0015479 -0.000152972 
         -25       11.269     0.999972   0.00154796 -0.000152717 
         -25      11.3721     0.999972   0.00154801  -0.00015246 
         -25      11.4757     0.999972   0.00154807 -0.000152203 
         -25      11.5798     0.999972   0.00154812 -0.000151944 
         -25      11.6844     0.999972   0.00154818 -0.000151684 
         -25      11.7894     0.999972   0.00154824 -0.000151423 
         -25       11.895     0.999972   0.00154829 -0.000151161 
         -25      12.0009     0.999972   0.00154835 -0.000150897 
         -25      12.1073     0.999972   0.00154841 -0.000150633 
         -25      12.2142     0.999972   0.00154847 -0.000150367 
         -25      12.3216     0.999972   0.00154852   -0.0001501 
         -25      12.4294     0.999972   0.00154858 -0.000149832 
         -25      12.5378     0.999973   0.00154864 -0.000149563 
         -25      12.6465     0.999973   0.00154869 -0.000149293 
         -25      12.7558     0.999973   0.00154875 -0.000149021 
         -25      12.8656     0.999973   0.00154881 -0.000148749 
         -25      12.9757     0.999973   0.00154887 -0.000148475 
         -25      13.0864     0.999973   0.00154893   -0.0001482 
         -25      13.1975     0.999973   0.00154899 -0.000147924 
         -25      13.3092     0.999973   0.00154904 -0.000147647 
         -25      13.4212     0.999973    0.0015491 -0.000147368 
         -25      13.5338     0.999973   0.00154916 -0.000147089 
         -25      13.6468     0.999973   0.00154921 -0.000146808 
         -25      13.7603     0.999973   0.00154928 -0.000146527 
         -25      13.8743     0.999973   0.00154935 -0.000146245 
         -25      13.9886     0.999973    0.0015494 -0.000145961 
         -25      14.1036     0.999974   0.00154945 -0.000145675 
         -25      14.2189     0.999974   0.00154951 -0.000145389 
         -25      14.3348     0.999974   0.00154957 -0.000145101 
         -25       14.451     0.999974   0.00154963 -0.000144812 
         -25      14.5678     0.999974   0.00154969 -0.000144522 
         -25      14.6851     0.999974   0.00154975  -0.00014423 
         -25      14.8028     0.999974   0.00154981 -0.000143937 
         -25       14.921     0.999974   0.00154987 -0.000143644 
         -25      15.0396     0.999974   0.00154993 -0.000143349 
         -25      15.1588     0.999974   0.00154999 -0.000143053 
         -25      15.2783     0.999974   0.00155005 -0.000142756 
         -25      15.3984     0.999974   0.00155011 -0.000142458 
         -25       15.519     0.999975   0.00155017 -0.000142159 
         -25        15.64     0.999975   0.00155023 -0.000141859 
         -25      15.7615     0.999975   0.00155029 -0.000141558 
         -25      15.8834     0.999975   0.00155035 -0.000141256 
         -25      16.0058     0.999975   0.00155041 -0.000140952 
         -25      16.1286     0.999975   0.00155047 -0.000140647 
         -25       16.252     0.999975   0.00155053 -0.000140341 
         -25      16.3759     0.999975   0.00155059 -0.000140033 
         -25      16.5002     0.999975   0.00155065 -0.000139724 
         -25       16.625     0.999975   0.00155071 -0.000139414 
         -25      16.7501     0.999975   0.00155078 -0.000139103 
         -25      16.8759     0.999975   0.00155084  -0.00013879 
         -25       17.002     0.999975   0.00155089 -0.000138476 
         -25      17.1287     0.999976   0.00155096 -0.000138163 
         -25      17.2557     0.999976   0.00155102 -0.000137848 
         -25      17.3834     0.999976   0.00155108 -0.000137532 
         -25      17.5115     0.999976   0.00155114 -0.000137215 
         -25      17.6399     0.999976    0.0015512 -0.000136896 
         -25       17.769     0.999976   0.00155126 -0.000136575 
         -25      17.8984     0.999976   0.00155133 -0.000136253 
         -25      18.0284     0.999976   0.00155139 -0.000135929 
         -25      18.1587     0.999976   0.00155145 -0.000135605 
         -25      18.2896     0.999976   0.00155151  -0.00013528 
         -25       18.421     0.999976   0.00155157 -0.000134953 
         -25      18.5528     0.999976   0.00155163 -0.000134626 
         -25      18.6851     0.999976   0.00155169 -0.000134298 
         -25      18.8178     0.999977   0.00155175  -0.00013397 
         -25      18.9511     0.999977   0.00155182  -0.00013364 
         -25      19.0847     0.999977   0.00155188 -0.000133309 
         -25      19.2189     0.999977   0.00155194 -0.000132976 
         -25      19.3535     0.999977     0.001552 -0.000132643 
         -25      19.4886     0.999977   0.00155206 -0.000132308 
         -25      19.6242     0.999977   0.00155212 -0.000131972 
         -25      19.7602     0.999977   0.00155219 -0.000131636 
         -25      19.8968     0.999977   0.00155225 -0.000131298 
         -25      20.0337     0.999977   0.00155231 -0.000130958 
         -25      20.1712     0.999977   0.00155237 -0.000130616 
         -25      20.3091     0.999977   0.00155244 -0.000130273 
         -25      20.4475     0.999978    0.0015525 -0.000129928 
         -25      20.5864     0.999978   0.00155256 -0.000129581 
         -25      20.7257     0.999978   0.00155262 -0.000129239 
         -25      20.8655     0.999978   0.00155268 -0.000128895 
         -25      21.0058     0.999978   0.00155275 -0.000128549 
         -25      21.1465     0.999978   0.00155281   -0.0001282 
         -25      21.2877     0.999978   0.00155287  -0.00012785 
         -25      21.4294     0.999978   0.00155293 -0.000127498 
         -25      21.5716     0.999978   0.00155299 -0.000127144 
         -25      21.7142     0.999978   0.00155305 -0.000126786 
         -25      21.8573     0.999978   0.00155311 -0.000126435 
         -25      22.0008     0.999978   0.00155317 -0.000126082 
         -25      22.1449     0.999979   0.00155324 -0.000125725 
         -25      22.2893     0.999979    0.0015533 -0.000125367 
         -25      22.4344     0.999979   0.00155337 -0.000125006 
         -25      22.5797     0.999979   0.00155343 -0.000124645 
         -25      22.7257     0.999979   0.00155349 -0.000124282 
         -25      22.8721     0.999979   0.00155355 -0.000123919 
         -25      23.0189     0.999979   0.00155361 -0.000123554 
         -25      23.1663     0.999979   0.00155367 -0.000123189 
         -25       23.314     0.999979   0.00155373 -0.000122823 
         -25      23.4623     0.999979    0.0015538 -0.000122456 
         -25       23.611     0.999979   0.00155386 -0.000122088 
         -25      23.7602     0.999979   0.00155392  -0.00012172 
         -25        23.91     0.999979   0.00155399  -0.00012135 
         -25        24.06      0.99998   0.00155404 -0.000120979 
         -25      24.2107      0.99998    0.0015541 -0.000120608 
         -25      24.3617      0.99998   0.00155416 -0.000120236 
         -25      24.5133      0.99998   0.00155424 -0.000119861 
         -25      24.6653      0.99998   0.00155429 -0.000119483 
         -25      24.8178      0.99998   0.00155435 -0.000119104 
         -25      24.9708      0.99998   0.00155442 -0.000118724 
         -25      25.1242      0.99998   0.00155448 -0.000118344 
         -25      25.2781      0.99998   0.00155454 -0.000117963 
         -25      25.4324      0.99998    0.0015546 -0.000117582 
         -25      25.5873      0.99998   0.00155465 -0.000117199 
         -25      25.7426      0.99998   0.00155471 -0.000116815 
         -25      25.8984     0.999981   0.00155477 -0.000116429 
         -25      26.0546     0.999981   0.00155483 -0.000116042 
         -25      26.2114     0.999981    0.0015549 -0.000115653 
         -25      26.3686     0.999981   0.00155496 -0.000115263 
         -25      26.5262     0.999981   0.00155503 -0.000114872 
         -25      26.6844     0.999981   0.00155509  -0.00011448 
         -25      26.8429     0.999981   0.00155516 -0.000114087 
         -25       27.002     0.999981   0.00155521 -0.000113693 
         -25      27.1615     0.999981   0.00155527 -0.000113298 
         -25      27.3216     0.999981   0.00155532 -0.000112901 
         -25      27.4821     0.999981   0.00155538 -0.000112505 
         -25       27.643     0.999981   0.00155544 -0.000112109 
         -25      27.8044     0.999982    0.0015555 -0.000111711 
         -25      27.9663     0.999982   0.00155557 -0.000111313 
         -25      28.1287     0.999982   0.00155563 -0.000110914 
         -25      28.2914     0.999982   0.00155569 -0.000110513 
         -25      28.4548     0.999982   0.00155575  -0.00011011 
         -25      28.6185     0.999982   0.00155581 -0.000109705 
         -25      28.7828     0.999982   0.00155587 -0.000109297 
         -25      28.9475     0.999982   0.00155595 -0.000108885 
         -25      29.1126     0.999982   0.00155599  -0.00010848 
         -25      29.2784     0.999982   0.00155606 -0.000108069 
         -25      29.4444     0.999982   0.00155612 -0.000107656 
         -25       29.611     0.999982   0.00155618 -0.000107243 
         -25       29.778     0.999983   0.00155624 -0.000106829 
         -25      29.9456     0.999983   0.00155629 -0.000106414 
         -25      30.1137     0.999983   0.00155634 -0.000105999 
         -25      30.2821     0.999983    0.0015564 -0.000105582 
         -25      30.4511     0.999983   0.00155646 -0.000105164 
         -25      30.6204     0.999983   0.00155652 -0.000104744 
         -25      30.7903     0.999983   0.00155658 -0.000104322 
         -25      30.9606     0.999983   0.00155665 -0.000103899 
         -25      31.1315     0.999983    0.0015567 -0.000103484 
         -25      31.3028     0.999983   0.00155676 -0.000103064 
         -25      31.4745     0.999983   0.00155682 -0.000102642 
         -25      31.6468     0.999983   0.00155687 -0.000102216 
         -25      31.8194     0.999984   0.00155693 -0.000101789 
         -25      31.9926     0.999984   0.00155699  -0.00010136 
         -25      32.1662     0.999984   0.00155706  -0.00010093 
         -25      32.3404     0.999984   0.00155712 -0.000100499 
         -25      32.5149     0.999984   0.00155717 -0.000100066 
         -25        32.69     0.999984   0.00155721 -9.96315e-05 
         -25      32.8655     0.999984   0.00155726  -9.9196e-05 
         -25      33.0414     0.999984   0.00155735 -9.87619e-05 
         -25       33.218     0.999984   0.00155739  -9.8323e-05 
         -25      33.3948     0.999984   0.00155743 -9.78852e-05 
         -25      33.5723     0.999984    0.0015575 -9.74481e-05 
         -25        33.75     0.999984   0.00155757 -9.70111e-05 
         -25      33.9284     0.999984   0.00155763 -9.65726e-05 
         -25      34.1073     0.999985   0.00155769 -9.61322e-05 
         -25      34.2865     0.999985   0.00155775 -9.56904e-05 
         -25      34.4663     0.999985    0.0015578 -9.52462e-05 
         -25      34.6465     0.999985   0.00155784 -9.48008e-05 
         -25      34.8272     0.999985   0.00155789 -9.43535e-05 
         -25      35.0083     0.999985   0.00155794 -9.39054e-05 
         -25        35.19     0.999985     0.001558  -9.3456e-05 
         -25      35.3721     0.999985   0.00155806 -9.30058e-05 
         -25      35.5546     0.999985   0.00155812 -9.25553e-05 
         -25      35.7377     0.999985   0.00155818 -9.21039e-05 
         -25      35.9211     0.999985   0.00155824 -9.16521e-05 
         -25      36.1052     0.999986    0.0015583 -9.11992e-05 
         -25      36.2895     0.999986   0.00155836 -9.07456e-05 
         -25      36.4745     0.999986   0.00155842 -9.02904e-05 
         -25      36.6598     0.999986   0.00155847 -8.98342e-05 
         -25      36.8457     0.999986   0.00155851  -8.9376e-05 
         -25      37.0321     0.999986   0.00155856 -8.89159e-05 
         -25      37.2188     0.999986   0.00155861 -8.84544e-05 
         -25      37.4062     0.999986   0.00155866 -8.79907e-05 
         -25      37.5938     0.999986   0.00155872 -8.75258e-05 
         -25      37.7821     0.999986   0.00155878 -8.70592e-05 
         -25      37.9707     0.999986   0.00155885 -8.65923e-05 
         -25      38.1599     0.999987   0.00155892 -8.61251e-05 
         -25      38.3496     0.999987   0.00155897 -8.56587e-05 
         -25      38.5396     0.999987   0.00155901 -8.51947e-05 
         -25      38.7302     0.999987   0.00155906 -8.47192e-05 
         -25      38.9211     0.999987   0.00155909 -8.42416e-05 
         -25      39.1127     0.999987   0.00155912 -8.37668e-05 
         -25      39.3046     0.999987   0.00155918 -8.32965e-05 
         -25      39.4971     0.999987   0.00155928  -8.2831e-05 
         -25      39.6899     0.999987   0.00155928 -8.23604e-05 
         -25      39.8833     0.999987    0.0015593 -8.18834e-05 
         -25      40.0772     0.999987   0.00155935 -8.14041e-05 
         -25      40.2714     0.999988   0.00155942 -8.09261e-05 
         -25      40.4663     0.999988   0.00155951 -8.04512e-05 
         -25      40.6615     0.999988   0.00155957 -7.99652e-05 
         -25      40.8573     0.999988    0.0015596 -7.94725e-05 
         -25      41.0534     0.999988   0.00155966  -7.8985e-05 
         -25      41.2501     0.999988   0.00155972 -7.85002e-05 
         -25      41.4473     0.999988   0.00155978 -7.80169e-05 
         -25      41.6448     0.999988   0.00155984 -7.75343e-05 
         -25      41.8429     0.999988   0.00155989 -7.70506e-05 
         -25      42.0414     0.999988   0.00155993 -7.65656e-05 
         -25      42.2405     0.999988   0.00155997 -7.60782e-05 
         -25      42.4399     0.999988   0.00156001 -7.55886e-05 
         -25      42.6399     0.999989   0.00156005 -7.50962e-05 
         -25      42.8404     0.999989   0.00156009 -7.46012e-05 
         -25      43.0412     0.999989   0.00156014 -7.41042e-05 
         -25      43.2426     0.999989   0.00156019 -7.36049e-05 
         -25      43.4444     0.999989   0.00156025 -7.31042e-05 
         -25      43.6467     0.999989   0.00156031  -7.2602e-05 
         -25      43.8494     0.999989   0.00156037 -7.20992e-05 
         -25      44.0527     0.999989   0.00156043 -7.15956e-05 
         -25      44.2563     0.999989   0.00156048 -7.10921e-05 
         -25      44.4606     0.999989   0.00156053 -7.05881e-05 
         -25      44.6653     0.999989   0.00156057 -7.00841e-05 
         -25      44.8704     0.999989    0.0015606 -6.95804e-05 
         -25       45.076     0.999989   0.00156063 -6.90759e-05 
         -25       45.282      0.99999   0.00156066 -6.85712e-05 
         -25      45.4886      0.99999   0.00156069 -6.80651e-05 
         -25      45.6955      0.99999   0.00156073 -6.75579e-05 
         -25       45.903      0.99999   0.00156078 -6.70484e-05 
         -25      46.1111      0.99999   0.00156085 -6.65369e-05 
         -25      46.3194      0.99999   0.00156092 -6.60237e-05 
         -25      46.5283      0.99999   0.00156098 -6.55085e-05 
         -25      46.7376      0.99999   0.00156098 -6.49932e-05 
         -25      46.9475      0.99999   0.00156096 -6.44781e-05 
         -25      47.1577      0.99999    0.0015611 -6.39612e-05 
         -25      47.3685      0.99999   0.00156115 -6.34428e-05 
         -25      47.5798     0.999991   0.00156118 -6.29231e-05 
         -25      47.7914     0.999991   0.00156119 -6.24022e-05 
         -25      48.0037     0.999991   0.00156122 -6.18791e-05 