Variables = x, y, u, v, p

Zone, I=800, F=POINT
         350            0  1.97013e-18  1.03622e-31 -5.40711e-05 
         350     0.000234  9.36178e-05  7.95623e-12  -5.4071e-05 
         350     0.000939  0.000375672  1.28117e-10 -5.40708e-05 
         350     0.002113  0.000845361  6.48746e-10 -5.40705e-05 
         350     0.003759   0.00150389  2.05315e-09   -5.407e-05 
         350     0.005872   0.00234925  5.01013e-09 -5.40694e-05 
         350     0.008457   0.00338345  1.03923e-08 -5.40686e-05 
         350      0.01151   0.00460489  1.92499e-08 -5.40677e-05 
         350     0.015036   0.00601556  3.28506e-08 -5.40667e-05 
         350     0.019031   0.00761387  5.26263e-08 -5.40655e-05 
         350     0.023493   0.00939902  8.01969e-08 -5.40642e-05 
         350     0.028429    0.0113738  1.17437e-07 -5.40628e-05 
         350     0.033831     0.013535  1.66308e-07 -5.40612e-05 
         350     0.039706    0.0158855  2.29085e-07 -5.40595e-05 
         350     0.046047    0.0184224  3.08097e-07 -5.40577e-05 
         350     0.052863    0.0211494   4.0606e-07 -5.40557e-05 
         350      0.06015    0.0240647  5.25725e-07 -5.40536e-05 
         350       0.0679    0.0271654  6.69928e-07 -5.40513e-05 
         350     0.076126    0.0304564  8.42084e-07 -5.40489e-05 
         350     0.084816    0.0339331  1.04531e-06 -5.40464e-05 
         350     0.093982    0.0376001  1.28345e-06 -5.40438e-05 
         350     0.103611    0.0414524  1.55992e-06  -5.4041e-05 
         350     0.113718    0.0454959  1.87909e-06  -5.4038e-05 
         350     0.124286    0.0497237  2.24457e-06 -5.40349e-05 
         350     0.135333     0.054143   2.6613e-06 -5.40317e-05 
         350      0.14685    0.0587503  3.13351e-06 -5.40284e-05 
         350     0.158827    0.0635414  3.66545e-06 -5.40249e-05 
         350     0.171284    0.0685243  4.26292e-06 -5.40213e-05 
         350     0.184201     0.073691  4.93003e-06 -5.40175e-05 
         350     0.197599    0.0790497  5.67317e-06 -5.40136e-05 
         350     0.211455    0.0845912  6.49653e-06 -5.40096e-05 
         350     0.225792    0.0903246   7.4071e-06 -5.40054e-05 
         350       0.2406    0.0962457  8.41019e-06 -5.40011e-05 
         350     0.255865     0.102349  9.51078e-06 -5.39967e-05 
         350     0.271613     0.108644   1.0717e-05 -5.39921e-05 
         350     0.287818     0.115121  1.20331e-05 -5.39874e-05 
         350     0.304506      0.12179  1.34679e-05 -5.39825e-05 
         350      0.32165     0.128639  1.50258e-05 -5.39775e-05 
         350     0.339278      0.13568  1.67162e-05 -5.39724e-05 
         350     0.357377     0.142907  1.85451e-05 -5.39671e-05 
         350      0.37593     0.150313  2.05178e-05 -5.39616e-05 
         350     0.394968     0.157909   2.2645e-05 -5.39561e-05 
         350     0.414461     0.165684  2.49311e-05 -5.39504e-05 
         350      0.43444     0.173649  2.73871e-05 -5.39445e-05 
         350     0.454872     0.181789  3.00171e-05 -5.39385e-05 
         350     0.475791     0.190119  3.28332e-05 -5.39324e-05 
         350     0.497163     0.198623   3.5839e-05 -5.39261e-05 
         350     0.519021     0.207314  3.90473e-05 -5.39197e-05 
         350      0.54135     0.216184  4.24643e-05 -5.39131e-05 
         350     0.564131     0.225226  4.60954e-05 -5.39063e-05 
         350       0.5874     0.234451  4.99547e-05 -5.38995e-05 
         350     0.611121     0.243845  5.40448e-05 -5.38924e-05 
         350      0.63533     0.253419  5.83804e-05 -5.38852e-05 
         350      0.65999     0.263158  6.29635e-05 -5.38778e-05 
         350     0.685139     0.273075  6.78096e-05 -5.38703e-05 
         350     0.710759     0.283159   7.2924e-05 -5.38626e-05 
         350     0.736828     0.293402  7.83107e-05 -5.38548e-05 
         350     0.763387     0.303815  8.39864e-05 -5.38467e-05 
         350     0.790396      0.31438   8.9951e-05 -5.38385e-05 
         350     0.817896     0.325112  9.62217e-05 -5.38301e-05 
         350     0.845843     0.335988  0.000102797 -5.38215e-05 
         350     0.874283     0.347024  0.000109694 -5.38128e-05 
         350      0.90317     0.358199   0.00011691 -5.38038e-05 
         350     0.932551     0.369525  0.000124465 -5.37946e-05 
         350     0.962401     0.380989  0.000132359 -5.37852e-05 
         350     0.992697     0.392578  0.000140591 -5.37756e-05 
         350      1.02349     0.404305  0.000149183 -5.37658e-05 
         350      1.05472     0.416146  0.000158124 -5.37558e-05 
         350      1.08645     0.428114  0.000167436 -5.37455e-05 
         350      1.11863     0.440183  0.000177107 -5.37349e-05 
         350       1.1513     0.452367  0.000187156 -5.37242e-05 
         350      1.18444     0.464649  0.000197581 -5.37131e-05 
         350      1.21802     0.477012  0.000208374 -5.37018e-05 
         350      1.25211     0.489467  0.000219554 -5.36901e-05 
         350      1.28663     0.501986  0.000231104 -5.36782e-05 
         350      1.32165     0.514582  0.000243043  -5.3666e-05 
         350      1.35712     0.527224  0.000255349 -5.36534e-05 
         350      1.39308     0.539922  0.000268041 -5.36405e-05 
         350      1.42951     0.552659  0.000281106 -5.36273e-05 
         350      1.46638     0.565411  0.000294527 -5.36137e-05 
         350      1.50375     0.578189   0.00030832 -5.35997e-05 
         350      1.54156     0.590962  0.000322457 -5.35854e-05 
         350      1.57987     0.603737  0.000336949 -5.35706e-05 
         350      1.61863     0.616483  0.000351766 -5.35554e-05 
         350      1.65788     0.629207  0.000366918 -5.35397e-05 
         350      1.69757     0.641876  0.000382369 -5.35236e-05 
         350      1.73776     0.654497  0.000398127  -5.3507e-05 
         350      1.77842     0.667047  0.000414166 -5.34899e-05 
         350      1.81952     0.679501  0.000430452 -5.34724e-05 
         350      1.86113     0.691866  0.000446995 -5.34543e-05 
         350      1.90316     0.704108  0.000463745 -5.34356e-05 
         350      1.94571     0.716233  0.000480706 -5.34164e-05 
         350      1.98869     0.728206  0.000497829 -5.33966e-05 
         350      2.03217     0.740032  0.000515114 -5.33762e-05 
         350      2.07612     0.751688  0.000532521 -5.33553e-05 
         350      2.12051     0.763151  0.000550007 -5.33337e-05 
         350       2.1654     0.774425  0.000567571 -5.33114e-05 
         350      2.21073     0.785478  0.000585154 -5.32885e-05 
         350      2.25656     0.796315  0.000602752  -5.3265e-05 
         350      2.30283     0.806906  0.000620306 -5.32407e-05 
         350       2.3496     0.817256   0.00063781 -5.32158e-05 
         350      2.39685     0.827343  0.000655216 -5.31902e-05 
         350      2.44452      0.83715  0.000672476 -5.31639e-05 
         350      2.49271     0.846682  0.000689585 -5.31368e-05 
         350      2.54132     0.855914   0.00070648 -5.31091e-05 
         350      2.59044     0.864853  0.000723156 -5.30806e-05 
         350         2.64     0.873476  0.000739554 -5.30514e-05 
         350      2.69006      0.88179  0.000755666 -5.30215e-05 
         350      2.74056     0.889778  0.000771436 -5.29908e-05 
         350      2.79156     0.897446   0.00078686 -5.29594e-05 
         350      2.84304     0.904786  0.000801896 -5.29272e-05 
         350      2.89494     0.911789  0.000816507 -5.28942e-05 
         350      2.94735     0.918467  0.000830692 -5.28605e-05 
         350       3.0002     0.924808  0.000844405 -5.28262e-05 
         350      3.05355     0.930824  0.000857647 -5.27911e-05 
         350      3.10733     0.936508  0.000870381 -5.27553e-05 
         350      3.16163     0.941873  0.000882611 -5.27188e-05 
         350      3.21639     0.946919  0.000894314 -5.26816e-05 
         350      3.27158     0.951648  0.000905473 -5.26438e-05 
         350      3.32729     0.956076  0.000916098 -5.26053e-05 
         350      3.38342     0.960202  0.000926168 -5.25662e-05 
         350      3.44007     0.964042  0.000935699 -5.25264e-05 
         350      3.49714       0.9676  0.000944676 -5.24861e-05 
         350      3.55472     0.970892  0.000953118  -5.2445e-05 
         350      3.61273     0.973922   0.00096102 -5.24035e-05 
         350      3.67125     0.976708  0.000968402 -5.23613e-05 
         350      3.73025     0.979259   0.00097527 -5.23185e-05 
         350      3.78967     0.981585  0.000981633 -5.22753e-05 
         350      3.84961     0.983701  0.000987518 -5.22315e-05 
         350      3.90996     0.985618  0.000992931 -5.21872e-05 
         350      3.97084     0.987351  0.000997901 -5.21423e-05 
         350      4.03214     0.988909   0.00100244 -5.20971e-05 
         350      4.09395     0.990308   0.00100658 -5.20513e-05 
         350      4.15624     0.991557   0.00101033  -5.2005e-05 
         350      4.21895     0.992668   0.00101372 -5.19583e-05 
         350      4.28217     0.993653   0.00101677 -5.19111e-05 
         350      4.34582     0.994523   0.00101951 -5.18635e-05 
         350      4.40998     0.995289   0.00102195 -5.18154e-05 
         350      4.47457     0.995959   0.00102412  -5.1767e-05 
         350      4.53968     0.996544   0.00102605 -5.17182e-05 
         350      4.60525     0.997053   0.00102774 -5.16689e-05 
         350      4.67125     0.997493   0.00102923 -5.16193e-05 
         350      4.73777     0.997872   0.00103054 -5.15692e-05 
         350       4.8047     0.998197   0.00103167 -5.15188e-05 
         350      4.87216     0.998474   0.00103266 -5.14679e-05 
         350      4.94003      0.99871   0.00103351 -5.14166e-05 
         350      5.00843      0.99891   0.00103424  -5.1365e-05 
         350      5.07724     0.999078   0.00103486  -5.1313e-05 
         350      5.14658     0.999219   0.00103539 -5.12605e-05 
         350      5.21639     0.999337   0.00103584 -5.12078e-05 
         350      5.28661     0.999435   0.00103622 -5.11547e-05 
         350      5.35736     0.999516   0.00103654 -5.11013e-05 
         350      5.42852     0.999582   0.00103681 -5.10476e-05 
         350      5.50021     0.999637   0.00103704 -5.09933e-05 
         350      5.57231     0.999681   0.00103722 -5.09387e-05 
         350      5.64493     0.999717   0.00103738 -5.08837e-05 
         350      5.71803     0.999746   0.00103751 -5.08283e-05 
         350      5.79154     0.999769   0.00103761 -5.07726e-05 
         350      5.86558     0.999787    0.0010377 -5.07166e-05 
         350      5.94003     0.999802   0.00103777 -5.06602e-05 
         350      6.01501     0.999814   0.00103783 -5.06033e-05 
         350       6.0904     0.999823   0.00103787 -5.05462e-05 
         350      6.16632      0.99983   0.00103791 -5.04887e-05 
         350      6.24271     0.999836   0.00103795 -5.04309e-05 
         350       6.3195      0.99984   0.00103798 -5.03728e-05 
         350      6.39683     0.999843     0.001038 -5.03142e-05 
         350      6.47457     0.999846   0.00103802 -5.02553e-05 
         350      6.55284     0.999848   0.00103804  -5.0196e-05 
         350      6.63152      0.99985   0.00103805 -5.01364e-05 
         350      6.71073     0.999851   0.00103807 -5.00764e-05 
         350      6.79034     0.999852   0.00103808 -5.00161e-05 
         350      6.87049     0.999852   0.00103809 -4.99553e-05 
         350      6.95111     0.999853   0.00103811 -4.98943e-05 
         350      7.03214     0.999854   0.00103812 -4.98329e-05 
         350       7.1137     0.999854   0.00103813 -4.97712e-05 
         350      7.19566     0.999854   0.00103814 -4.97091e-05 
         350      7.27816     0.999855   0.00103815 -4.96466e-05 
         350      7.36106     0.999855   0.00103816 -4.95838e-05 
         350      7.44451     0.999855   0.00103817 -4.95206e-05 
         350      7.52842     0.999855   0.00103818 -4.94569e-05 
         350      7.61273     0.999856   0.00103819  -4.9393e-05 
         350      7.69758     0.999856    0.0010382 -4.93286e-05 
         350      7.78283     0.999856   0.00103821  -4.9264e-05 
         350      7.86862     0.999856   0.00103822  -4.9199e-05 
         350      7.95481     0.999857   0.00103823 -4.91338e-05 
         350      8.04155     0.999857   0.00103824 -4.90681e-05 
         350      8.12868     0.999857   0.00103825 -4.90022e-05 
         350      8.21635     0.999857   0.00103826 -4.89359e-05 
         350      8.30449     0.999857   0.00103827 -4.88692e-05 
         350      8.39303     0.999858   0.00103828 -4.88021e-05 
         350      8.48211     0.999858   0.00103829 -4.87345e-05 
         350      8.57159     0.999858    0.0010383 -4.86663e-05 
         350      8.66161     0.999858   0.00103831 -4.85973e-05 
         350      8.75203     0.999859   0.00103832 -4.85283e-05 
         350      8.84299     0.999859   0.00103833 -4.84592e-05 
         350      8.93443     0.999859   0.00103834   -4.839e-05 
         350      9.02626     0.999859   0.00103835 -4.83206e-05 
         350      9.11863     0.999859   0.00103836 -4.82506e-05 
         350      9.21139      0.99986   0.00103837 -4.81804e-05 
         350      9.30471      0.99986   0.00103838 -4.81096e-05 
         350      9.39841      0.99986   0.00103839 -4.80385e-05 
         350      9.49267      0.99986   0.00103841  -4.7967e-05 
         350      9.58739     0.999861   0.00103842 -4.78952e-05 
         350      9.68251     0.999861   0.00103843 -4.78231e-05 
         350      9.77817     0.999861   0.00103844 -4.77505e-05 
         350      9.87422     0.999861   0.00103845 -4.76777e-05 
         350      9.97083     0.999862   0.00103846 -4.76045e-05 
         350      10.0678     0.999862   0.00103847 -4.75309e-05 
         350      10.1654     0.999862   0.00103848  -4.7457e-05 
         350      10.2633     0.999862   0.00103849 -4.73827e-05 
         350      10.3618     0.999863    0.0010385  -4.7308e-05 
         350      10.4607     0.999863   0.00103851  -4.7233e-05 
         350      10.5601     0.999863   0.00103853 -4.71576e-05 
         350        10.66     0.999863   0.00103854 -4.70819e-05 
         350      10.7603     0.999863   0.00103855 -4.70058e-05 
         350      10.8611     0.999864   0.00103856 -4.69294e-05 
         350      10.9623     0.999864   0.00103857 -4.68526e-05 
         350      11.0641     0.999864   0.00103858 -4.67754e-05 
         350      11.1663     0.999864   0.00103859 -4.66977e-05 
         350       11.269     0.999865    0.0010386 -4.66198e-05 
         350      11.3721     0.999865   0.00103862 -4.65415e-05 
         350      11.4757     0.999865   0.00103863  -4.6463e-05 
         350      11.5798     0.999865   0.00103864 -4.63842e-05 
         350      11.6844     0.999866   0.00103865  -4.6305e-05 
         350      11.7894     0.999866   0.00103866  -4.6225e-05 
         350       11.895     0.999866   0.00103867 -4.61447e-05 
         350      12.0009     0.999867   0.00103868 -4.60641e-05 
         350      12.1073     0.999867    0.0010387 -4.59831e-05 
         350      12.2142     0.999867   0.00103871 -4.59018e-05 
         350      12.3216     0.999867   0.00103872   -4.582e-05 
         350      12.4294     0.999868   0.00103873 -4.57379e-05 
         350      12.5378     0.999868   0.00103874 -4.56554e-05 
         350      12.6465     0.999868   0.00103875 -4.55727e-05 
         350      12.7558     0.999868   0.00103877 -4.54895e-05 
         350      12.8656     0.999869   0.00103878  -4.5406e-05 
         350      12.9757     0.999869   0.00103879 -4.53222e-05 
         350      13.0864     0.999869    0.0010388  -4.5238e-05 
         350      13.1975     0.999869   0.00103881 -4.51534e-05 
         350      13.3092      0.99987   0.00103883 -4.50684e-05 
         350      13.4212      0.99987   0.00103884 -4.49832e-05 
         350      13.5338      0.99987   0.00103885 -4.48976e-05 
         350      13.6468      0.99987   0.00103886 -4.48116e-05 
         350      13.7603     0.999871   0.00103887 -4.47253e-05 
         350      13.8743     0.999871   0.00103889 -4.46386e-05 
         350      13.9886     0.999871    0.0010389 -4.45515e-05 
         350      14.1036     0.999872   0.00103891  -4.4464e-05 
         350      14.2189     0.999872   0.00103892 -4.43763e-05 
         350      14.3348     0.999872   0.00103894 -4.42882e-05 
         350       14.451     0.999872   0.00103895 -4.41998e-05 
         350      14.5678     0.999873   0.00103896 -4.41108e-05 
         350      14.6851     0.999873   0.00103897 -4.40214e-05 
         350      14.8028     0.999873   0.00103898 -4.39318e-05 
         350       14.921     0.999874     0.001039 -4.38417e-05 
         350      15.0396     0.999874   0.00103901 -4.37514e-05 
         350      15.1588     0.999874   0.00103902 -4.36606e-05 
         350      15.2783     0.999874   0.00103903 -4.35697e-05 
         350      15.3984     0.999875   0.00103905 -4.34785e-05 
         350       15.519     0.999875   0.00103906  -4.3387e-05 
         350        15.64     0.999875   0.00103907 -4.32949e-05 
         350      15.7615     0.999876   0.00103908 -4.32027e-05 
         350      15.8834     0.999876    0.0010391 -4.31101e-05 
         350      16.0058     0.999876   0.00103911 -4.30167e-05 
         350      16.1286     0.999876   0.00103912 -4.29231e-05 
         350       16.252     0.999877   0.00103913 -4.28292e-05 
         350      16.3759     0.999877   0.00103915 -4.27349e-05 
         350      16.5002     0.999877   0.00103916 -4.26404e-05 
         350       16.625     0.999878   0.00103917 -4.25453e-05 
         350      16.7501     0.999878   0.00103918   -4.245e-05 
         350      16.8759     0.999878    0.0010392 -4.23542e-05 
         350       17.002     0.999878   0.00103921 -4.22581e-05 
         350      17.1287     0.999879   0.00103922 -4.21616e-05 
         350      17.2557     0.999879   0.00103924 -4.20649e-05 
         350      17.3834     0.999879   0.00103925 -4.19678e-05 
         350      17.5115      0.99988   0.00103926 -4.18704e-05 
         350      17.6399      0.99988   0.00103927 -4.17726e-05 
         350       17.769      0.99988   0.00103929 -4.16742e-05 
         350      17.8984     0.999881    0.0010393 -4.15754e-05 
         350      18.0284     0.999881   0.00103931  -4.1476e-05 
         350      18.1587     0.999881   0.00103933 -4.13762e-05 
         350      18.2896     0.999881   0.00103934 -4.12755e-05 
         350       18.421     0.999882   0.00103935 -4.11745e-05 
         350      18.5528     0.999882   0.00103936 -4.10738e-05 
         350      18.6851     0.999882   0.00103938 -4.09731e-05 
         350      18.8178     0.999883   0.00103939 -4.08722e-05 
         350      18.9511     0.999883    0.0010394 -4.07708e-05 
         350      19.0847     0.999883   0.00103942 -4.06689e-05 
         350      19.2189     0.999884   0.00103943 -4.05664e-05 
         350      19.3535     0.999884   0.00103944 -4.04635e-05 
         350      19.4886     0.999884   0.00103946 -4.03606e-05 
         350      19.6242     0.999885   0.00103947 -4.02572e-05 
         350      19.7602     0.999885   0.00103948 -4.01535e-05 
         350      19.8968     0.999885   0.00103949 -4.00493e-05 
         350      20.0337     0.999886   0.00103951 -3.99448e-05 
         350      20.1712     0.999886   0.00103952 -3.98398e-05 
         350      20.3091     0.999886   0.00103953 -3.97346e-05 
         350      20.4475     0.999886   0.00103955 -3.96288e-05 
         350      20.5864     0.999887   0.00103956 -3.95228e-05 
         350      20.7257     0.999887   0.00103957 -3.94165e-05 
         350      20.8655     0.999887   0.00103958 -3.93099e-05 
         350      21.0058     0.999888    0.0010396 -3.92031e-05 
         350      21.1465     0.999888   0.00103961 -3.90959e-05 
         350      21.2877     0.999888   0.00103963 -3.89885e-05 
         350      21.4294     0.999889   0.00103964 -3.88806e-05 
         350      21.5716     0.999889   0.00103965 -3.87721e-05 
         350      21.7142     0.999889   0.00103966 -3.86633e-05 
         350      21.8573      0.99989   0.00103968 -3.85541e-05 
         350      22.0008      0.99989   0.00103969 -3.84447e-05 
         350      22.1449      0.99989   0.00103971 -3.83348e-05 
         350      22.2893     0.999891   0.00103972 -3.82244e-05 
         350      22.4344     0.999891   0.00103973 -3.81135e-05 
         350      22.5797     0.999891   0.00103974 -3.80024e-05 
         350      22.7257     0.999892   0.00103976 -3.78913e-05 
         350      22.8721     0.999892   0.00103977 -3.77791e-05 
         350      23.0189     0.999892   0.00103978 -3.76668e-05 
         350      23.1663     0.999893    0.0010398 -3.75543e-05 
         350       23.314     0.999893   0.00103981 -3.74415e-05 
         350      23.4623     0.999893   0.00103983 -3.73282e-05 
         350       23.611     0.999894   0.00103984 -3.72146e-05 
         350      23.7602     0.999894   0.00103985 -3.71005e-05 
         350        23.91     0.999894   0.00103986  -3.6986e-05 
         350        24.06     0.999895   0.00103988 -3.68711e-05 
         350      24.2107     0.999895   0.00103989 -3.67558e-05 
         350      24.3617     0.999895    0.0010399 -3.66402e-05 
         350      24.5133     0.999896   0.00103992 -3.65242e-05 
         350      24.6653     0.999896   0.00103993 -3.64079e-05 
         350      24.8178     0.999896   0.00103995 -3.62912e-05 
         350      24.9708     0.999897   0.00103996 -3.61741e-05 
         350      25.1242     0.999897   0.00103997 -3.60569e-05 
         350      25.2781     0.999897   0.00103999 -3.59391e-05 
         350      25.4324     0.999898      0.00104 -3.58211e-05 
         350      25.5873     0.999898   0.00104001 -3.57025e-05 
         350      25.7426     0.999899   0.00104003 -3.55837e-05 
         350      25.8984     0.999899   0.00104004 -3.54644e-05 
         350      26.0546     0.999899   0.00104005 -3.53447e-05 
         350      26.2114       0.9999   0.00104007 -3.52248e-05 
         350      26.3686       0.9999   0.00104008 -3.51047e-05 
         350      26.5262       0.9999   0.00104009  -3.4984e-05 
         350      26.6844     0.999901   0.00104011 -3.48626e-05 
         350      26.8429     0.999901   0.00104012 -3.47408e-05 
         350       27.002     0.999901   0.00104013 -3.46202e-05 
         350      27.1615     0.999902   0.00104014 -3.44985e-05 
         350      27.3216     0.999902   0.00104016 -3.43758e-05 
         350      27.4821     0.999902   0.00104017 -3.42524e-05 
         350       27.643     0.999903   0.00104019 -3.41287e-05 
         350      27.8044     0.999903    0.0010402 -3.40056e-05 
         350      27.9663     0.999903   0.00104022 -3.38828e-05 
         350      28.1287     0.999904   0.00104023 -3.37587e-05 
         350      28.2914     0.999904   0.00104024  -3.3634e-05 
         350      28.4548     0.999905   0.00104025 -3.35086e-05 
         350      28.6185     0.999905   0.00104027 -3.33828e-05 
         350      28.7828     0.999905   0.00104028 -3.32567e-05 
         350      28.9475     0.999906   0.00104029 -3.31302e-05 
         350      29.1126     0.999906   0.00104031 -3.30036e-05 
         350      29.2784     0.999906   0.00104032 -3.28767e-05 
         350      29.4444     0.999907   0.00104034 -3.27495e-05 
         350       29.611     0.999907   0.00104035 -3.26219e-05 
         350       29.778     0.999908   0.00104036 -3.24939e-05 
         350      29.9456     0.999908   0.00104037 -3.23654e-05 
         350      30.1137     0.999908   0.00104039 -3.22364e-05 
         350      30.2821     0.999909    0.0010404 -3.21069e-05 
         350      30.4511     0.999909   0.00104042 -3.19769e-05 
         350      30.6204     0.999909   0.00104043 -3.18468e-05 
         350      30.7903      0.99991   0.00104044 -3.17163e-05 
         350      30.9606      0.99991   0.00104046 -3.15862e-05 
         350      31.1315      0.99991   0.00104047 -3.14558e-05 
         350      31.3028     0.999911   0.00104048 -3.13249e-05 
         350      31.4745     0.999911   0.00104049 -3.11934e-05 
         350      31.6468     0.999912   0.00104051 -3.10611e-05 
         350      31.8194     0.999912   0.00104052 -3.09283e-05 
         350      31.9926     0.999912   0.00104054 -3.07949e-05 
         350      32.1662     0.999913   0.00104055 -3.06613e-05 
         350      32.3404     0.999913   0.00104056 -3.05275e-05 
         350      32.5149     0.999914   0.00104057 -3.03937e-05 
         350        32.69     0.999914   0.00104058 -3.02596e-05 
         350      32.8655     0.999914    0.0010406 -3.01254e-05 
         350      33.0414     0.999915   0.00104061 -2.99908e-05 
         350       33.218     0.999915   0.00104062 -2.98555e-05 
         350      33.3948     0.999915   0.00104064 -2.97196e-05 
         350      33.5723     0.999916   0.00104066 -2.95825e-05 
         350        33.75     0.999916   0.00104067 -2.94447e-05 
         350      33.9284     0.999917   0.00104067  -2.9306e-05 
         350      34.1073     0.999917   0.00104069 -2.91674e-05 
         350      34.2865     0.999917    0.0010407 -2.90289e-05 
         350      34.4663     0.999918   0.00104071 -2.88889e-05 
         350      34.6465     0.999918   0.00104072 -2.87501e-05 
         350      34.8272     0.999919   0.00104074 -2.86129e-05 
         350      35.0083     0.999919   0.00104075 -2.84749e-05 
         350        35.19     0.999919   0.00104077 -2.83362e-05 
         350      35.3721      0.99992   0.00104078 -2.81968e-05 
         350      35.5546      0.99992   0.00104079 -2.80562e-05 
         350      35.7377     0.999921    0.0010408 -2.79145e-05 
         350      35.9211     0.999921   0.00104081  -2.7776e-05 
         350      36.1052     0.999921   0.00104082 -2.76356e-05 
         350      36.2895     0.999922   0.00104084  -2.7494e-05 
         350      36.4745     0.999922   0.00104085 -2.73516e-05 
         350      36.6598     0.999923   0.00104086 -2.72087e-05 
         350      36.8457     0.999923   0.00104088 -2.70653e-05 
         350      37.0321     0.999923   0.00104089 -2.69216e-05 
         350      37.2188     0.999924    0.0010409 -2.67776e-05 
         350      37.4062     0.999924   0.00104091 -2.66331e-05 
         350      37.5938     0.999925   0.00104092 -2.64885e-05 
         350      37.7821     0.999925   0.00104094 -2.63436e-05 
         350      37.9707     0.999925   0.00104096  -2.6199e-05 
         350      38.1599     0.999926   0.00104097 -2.60543e-05 
         350      38.3496     0.999926   0.00104098 -2.59096e-05 
         350      38.5396     0.999927   0.00104099 -2.57643e-05 
         350      38.7302     0.999927   0.00104101 -2.56164e-05 
         350      38.9211     0.999927   0.00104101  -2.5471e-05 
         350      39.1127     0.999928   0.00104102 -2.53238e-05 
         350      39.3046     0.999928   0.00104104 -2.51755e-05 
         350      39.4971     0.999929   0.00104105 -2.50267e-05 
         350      39.6899     0.999929   0.00104106 -2.48778e-05 
         350      39.8833     0.999929   0.00104107  -2.4729e-05 
         350      40.0772      0.99993   0.00104108 -2.45802e-05 
         350      40.2714      0.99993   0.00104109 -2.44316e-05 
         350      40.4663     0.999931   0.00104111 -2.42828e-05 
         350      40.6615     0.999931   0.00104112 -2.41338e-05 
         350      40.8573     0.999932   0.00104113 -2.39856e-05 
         350      41.0534     0.999932   0.00104115 -2.38358e-05 
         350      41.2501     0.999932   0.00104116 -2.36841e-05 
         350      41.4473     0.999933   0.00104117 -2.35315e-05 
         350      41.6448     0.999933   0.00104118 -2.33786e-05 
         350      41.8429     0.999934   0.00104119 -2.32254e-05 
         350      42.0414     0.999934    0.0010412 -2.30723e-05 
         350      42.2405     0.999935   0.00104121 -2.29191e-05 
         350      42.4399     0.999935   0.00104123  -2.2766e-05 
         350      42.6399     0.999935   0.00104124 -2.26126e-05 
         350      42.8404     0.999936   0.00104126 -2.24591e-05 
         350      43.0412     0.999936   0.00104126 -2.23055e-05 
         350      43.2426     0.999937   0.00104127  -2.2151e-05 
         350      43.4444     0.999937   0.00104129 -2.19951e-05 
         350      43.6467     0.999938   0.00104129 -2.18388e-05 
         350      43.8494     0.999938    0.0010413 -2.16826e-05 
         350      44.0527     0.999938   0.00104132 -2.15255e-05 
         350      44.2563     0.999939   0.00104133 -2.13682e-05 
         350      44.4606     0.999939   0.00104134 -2.12107e-05 
         350      44.6653      0.99994   0.00104135 -2.10532e-05 
         350      44.8704      0.99994   0.00104136 -2.08956e-05 
         350       45.076      0.99994   0.00104137 -2.07376e-05 
         350       45.282     0.999941   0.00104138 -2.05794e-05 
         350      45.4886     0.999941   0.00104139 -2.04207e-05 
         350      45.6955     0.999942    0.0010414 -2.02616e-05 
         350       45.903     0.999942   0.00104142  -2.0102e-05 
         350      46.1111     0.999943   0.00104143 -1.99418e-05 
         350      46.3194     0.999943   0.00104144 -1.97814e-05 
         350      46.5283     0.999943   0.00104145 -1.96203e-05 
         350      46.7376     0.999944   0.00104146 -1.94588e-05 
         350      46.9475     0.999944   0.00104147 -1.92966e-05 
         350      47.1577     0.999945   0.00104148 -1.91339e-05 
         350      47.3685     0.999945   0.00104148 -1.89705e-05 
         350      47.5798     0.999946   0.00104148 -1.88069e-05 
         350      47.7914     0.999946    0.0010415 -1.86428e-05 
         350      48.0037     0.999947   0.00104152 -1.84789e-05 