Variables = x, y, u, v, p

Zone, I=416, F=POINT
         -50            0            0            0     -48.3058 
         -50     0.013333 -1.24428e-05 -1.89205e-08     -48.3058 
         -50     0.053333 -1.46795e-05  -1.0674e-07     -48.3058 
         -50         0.12 -1.27192e-05 -4.44759e-07     -48.3058 
         -50     0.213332 -4.62475e-06 -1.20045e-06     -48.3058 
         -50     0.333332  4.94271e-06 -2.36347e-06     -48.3057 
         -50         0.48  1.22831e-05 -3.95981e-06     -48.3056 
         -50     0.653331  1.45046e-05 -5.72635e-06     -48.3055 
         -50     0.853332   1.2955e-05 -7.62099e-06     -48.3052 
         -50         1.08   1.0094e-05 -9.13869e-06     -48.3049 
         -50      1.33333   6.5049e-06 -1.05549e-05     -48.3044 
         -50      1.61333  3.38042e-06 -1.14827e-05     -48.3038 
         -50         1.92 -2.75957e-06 -1.18824e-05      -48.303 
         -50      2.25333 -1.29333e-05 -1.16668e-05     -48.3019 
         -50      2.61333  -2.0815e-05 -1.08095e-05     -48.3006 
         -50            3 -2.12205e-05 -9.57232e-06     -48.2989 
         -25            0 -1.49026e-20 -5.08232e-24     -46.4023 
         -25     0.013333 -1.07289e-05   -1.589e-09     -46.4023 
         -25     0.053333 -1.90329e-05   4.7499e-08     -46.4023 
         -25         0.12 -3.25663e-05  2.11333e-07     -46.4023 
         -25     0.213332 -4.88311e-05  5.16055e-07     -46.4023 
         -25     0.333332 -6.61257e-05  9.21627e-07     -46.4023 
         -25         0.48  -8.1206e-05  1.32291e-06     -46.4023 
         -25     0.653331 -9.02401e-05  1.83545e-06     -46.4022 
         -25     0.853332  -8.8492e-05  2.56997e-06     -46.4021 
         -25         1.08  -7.5666e-05  3.56003e-06      -46.402 
         -25      1.33333 -5.77712e-05  4.52525e-06     -46.4018 
         -25      1.61333 -3.84176e-05  5.40018e-06     -46.4016 
         -25         1.92 -1.60104e-05  6.11003e-06     -46.4013 
         -25      2.25333  3.28142e-06  6.96911e-06     -46.4009 
         -25      2.61333  1.36558e-05  6.49991e-06     -46.4004 
         -25            3  1.44193e-05  3.66122e-06     -46.3997 
           0            0            0            0     -44.8316 
           0     0.013333  3.15643e-05  7.72848e-07     -44.8332 
           0     0.053333  5.54996e-06 -1.96585e-06      -44.836 
           0         0.12 -1.03503e-06  2.48439e-06     -44.8392 
           0     0.213332 -1.24265e-05  2.65585e-06     -44.8426 
           0     0.333332 -2.65537e-05  4.52326e-06      -44.846 
           0         0.48 -3.59326e-05  7.37903e-06     -44.8494 
           0     0.653331 -3.73369e-05  1.10419e-05     -44.8528 
           0     0.853332 -3.24587e-05  1.52226e-05     -44.8561 
           0         1.08 -2.72672e-05  1.93556e-05     -44.8593 
           0      1.33333  -2.3808e-05  2.29339e-05     -44.8623 
           0      1.61333 -1.85162e-05  2.55958e-05     -44.8652 
           0         1.92 -1.00925e-05  2.71658e-05      -44.868 
           0      2.25333  3.17239e-06    2.736e-05     -44.8706 
           0      2.61333  1.38752e-05  2.62973e-05     -44.8731 
           0            3  1.81164e-05  2.62208e-05     -44.8753 
          20            0 -1.14961e-05  9.61297e-05     -43.8878 
          20     0.013333 -1.42199e-05  9.65728e-05     -43.8877 
          20     0.053333 -2.32178e-05  9.78239e-05     -43.8877 
          20         0.12 -4.09774e-05  9.96668e-05     -43.8877 
          20     0.213332 -7.08738e-05  0.000101839     -43.8877 
          20     0.333332 -0.000113709  0.000104306     -43.8876 
          20         0.48 -0.000156666  0.000107485     -43.8876 
          20     0.653331 -0.000174842  0.000111901     -43.8875 
          20     0.853332 -0.000158781  0.000116993     -43.8874 
          20         1.08 -0.000121763  0.000120972     -43.8873 
          20      1.33333 -8.10844e-05  0.000121692     -43.8872 
          20      1.61333  -4.0318e-05  0.000118058      -43.887 
          20         1.92 -3.50269e-06  0.000109712     -43.8868 
          20      2.25333  2.40145e-05  9.70751e-05     -43.8865 
          20      2.61333  3.47632e-05  8.14957e-05     -43.8862 
          20            3  3.82449e-05  6.64967e-05     -43.8859 
          40            0           -0           -0     -42.9391 
          40     0.013333 -0.000109451  3.35818e-07     -42.9391 
          40     0.053333 -0.000449556  4.80883e-06     -42.9391 
          40         0.12 -0.000999047  1.97881e-05     -42.9391 
          40     0.213332  -0.00155935   4.8122e-05     -42.9391 
          40     0.333332  -0.00189558  8.95667e-05     -42.9391 
          40         0.48    -0.002004  0.000140393      -42.939 
          40     0.653331  -0.00213905  0.000185704     -42.9389 
          40     0.853332  -0.00220452  0.000220516     -42.9388 
          40         1.08   -0.0019387   0.00025715     -42.9387 
          40      1.33333  -0.00142435  0.000294774     -42.9385 
          40      1.61333  -0.00083285  0.000324845     -42.9382 
          40         1.92 -0.000272577  0.000341505     -42.9378 
          40      2.25333  0.000173471  0.000342714     -42.9373 
          40      2.61333    0.0004557  0.000329784     -42.9367 
          40            3   0.00057516  0.000305236      -42.936 
          60            0           -0           -0       -41.98 
          60     0.013333  9.75509e-05   5.2975e-07       -41.98 
          60     0.053333  0.000206609  8.16426e-06       -41.98 
          60         0.12  -2.9775e-05    3.764e-05       -41.98 
          60     0.213332 -0.000648803  0.000100967       -41.98 
          60     0.333332  -0.00130418  0.000196337       -41.98 
          60         0.48  -0.00164733  0.000312827       -41.98 
          60     0.653331  -0.00158725  0.000442574     -41.9799 
          60     0.853332   -0.0012906  0.000579347     -41.9799 
          60         1.08 -0.000981511  0.000713506     -41.9799 
          60      1.33333  -0.00072125  0.000832972     -41.9799 
          60      1.61333 -0.000478635  0.000922734     -41.9798 
          60         1.92 -0.000176525  0.000966857     -41.9798 
          60      2.25333  4.53718e-05  0.000962244     -41.9797 
          60      2.61333  0.000181832  0.000915499     -41.9796 
          60            3  0.000272926    0.0008389     -41.9795 
          80            0           -0           -0     -41.0653 
          80     0.013333  0.000269017   8.3636e-07     -41.0653 
          80     0.053333  0.000738428  1.29929e-05     -41.0653 
          80         0.12  0.000733152  6.06001e-05     -41.0653 
          80     0.213332  4.05894e-05   0.00016482     -41.0653 
          80     0.333332 -0.000884304  0.000326017     -41.0653 
          80         0.48  -0.00144265  0.000530116     -41.0653 
          80     0.653331  -0.00129045  0.000766638     -41.0653 
          80     0.853332 -0.000534819   0.00102034     -41.0653 
          80         1.08  0.000114152   0.00125189     -41.0653 
          80      1.33333  0.000239871   0.00142814     -41.0653 
          80      1.61333  0.000162725   0.00154939     -41.0653 
          80         1.92  0.000144652   0.00160508     -41.0652 
          80      2.25333  0.000116424   0.00158954     -41.0652 
          80      2.61333   9.1108e-05   0.00151257     -41.0651 
          80            3  7.48837e-05    0.0013906     -41.0651 
         100            0           -0           -0     -40.1714 
         100     0.013333  0.000253104  5.24076e-07     -40.1714 
         100     0.053333  0.000786274  8.09721e-06     -40.1714 
         100         0.12   0.00111891  3.75938e-05     -40.1714 
         100     0.213332   0.00103081  0.000102456     -40.1714 
         100     0.333332  0.000709987  0.000205326     -40.1714 
         100         0.48  0.000489823  0.000341836     -40.1714 
         100     0.653331  0.000607373   0.00050808     -40.1714 
         100     0.853332  0.000970164   0.00069073     -40.1714 
         100         1.08   0.00102641  0.000853985     -40.1714 
         100      1.33333  0.000656309  0.000972851     -40.1714 
         100      1.61333   0.00036207   0.00105676     -40.1714 
         100         1.92  0.000186704   0.00110035     -40.1714 
         100      2.25333  3.09657e-05   0.00109634     -40.1714 
         100      2.61333 -9.70709e-05   0.00104964     -40.1714 
         100            3 -0.000180908  0.000970755     -40.1713 
         150            0            0            0     -37.9826 
         150     0.013333  0.000285364 -3.75024e-07     -37.9826 
         150     0.053333   0.00109913 -4.83489e-06     -37.9826 
         150         0.12   0.00217165 -1.67419e-05     -37.9826 
         150     0.213332   0.00305766 -2.96536e-05     -37.9826 
         150     0.333332   0.00347763 -3.01816e-05     -37.9826 
         150         0.48   0.00352201 -1.05519e-05     -37.9826 
         150     0.653331   0.00339653  2.49281e-05     -37.9826 
         150     0.853332   0.00311683  6.26509e-05     -37.9826 
         150         1.08   0.00260455  9.12102e-05     -37.9826 
         150      1.33333   0.00196959  0.000110354     -37.9826 
         150      1.61333   0.00132846  0.000126457     -37.9826 
         150         1.92  0.000645057  0.000137335     -37.9827 
         150      2.25333  3.95098e-05  0.000140943     -37.9827 
         150      2.61333 -0.000430995  0.000139718     -37.9828 
         150            3 -0.000758516  0.000133687     -37.9828 
         200            0           -0           -0     -35.8236 
         200     0.013333  0.000253403  2.58083e-07     -35.8236 
         200     0.053333  0.000824084  4.44171e-06     -35.8236 
         200         0.12   0.00124925  2.33857e-05     -35.8236 
         200     0.213332   0.00122526  7.11829e-05     -35.8236 
         200     0.333332  0.000874884   0.00015422     -35.8236 
         200         0.48  0.000544357  0.000266752     -35.8236 
         200     0.653331   0.00043503  0.000397528     -35.8236 
         200     0.853332  0.000482521  0.000533669     -35.8236 
         200         1.08  0.000477829  0.000660499     -35.8236 
         200      1.33333  0.000348115  0.000767514     -35.8236 
         200      1.61333  0.000190688  0.000851714     -35.8237 
         200         1.92  5.38713e-05  0.000906105     -35.8237 
         200      2.25333 -6.16859e-05  0.000925144     -35.8237 
         200      2.61333  -0.00014752  0.000909276     -35.8237 
         200            3 -0.000203253  0.000861659     -35.8237 
         250            0 -9.88815e-20  8.85492e-27     -33.6747 
         250     0.013333 -0.000130305  5.29208e-07     -33.6747 
         250     0.053333 -0.000575143  7.47114e-06     -33.6747 
         250         0.12  -0.00135834   3.0555e-05     -33.6747 
         250     0.213332  -0.00222137  7.17104e-05     -33.6747 
         250     0.333332  -0.00281547  0.000121837     -33.6747 
         250         0.48  -0.00303342  0.000170777     -33.6747 
         250     0.653331  -0.00297807   0.00021731     -33.6747 
         250     0.853332  -0.00270286  0.000268723     -33.6747 
         250         1.08  -0.00221598  0.000329623     -33.6747 
         250      1.33333  -0.00167928  0.000392147     -33.6747 
         250      1.61333  -0.00120539  0.000443482     -33.6747 
         250         1.92 -0.000703329  0.000479116     -33.6747 
         250      2.25333 -0.000230085  0.000497166     -33.6747 
         250      2.61333  0.000174618  0.000495841     -33.6746 
         250            3  0.000491884  0.000476525     -33.6746 
         300            0           -0           -0      -31.528 
         300     0.013333 -6.68352e-05   4.9537e-07      -31.528 
         300     0.053333 -0.000348328  7.16409e-06      -31.528 
         300         0.12 -0.000951167  3.04057e-05      -31.528 
         300     0.213332   -0.0017101   7.4714e-05      -31.528 
         300     0.333332  -0.00229133  0.000133459      -31.528 
         300         0.48  -0.00252156  0.000196455      -31.528 
         300     0.653331  -0.00245133  0.000260203      -31.528 
         300     0.853332  -0.00216577  0.000327926      -31.528 
         300         1.08  -0.00174709  0.000400009      -31.528 
         300      1.33333  -0.00133394  0.000469161      -31.528 
         300      1.61333 -0.000976818  0.000526755      -31.528 
         300         1.92 -0.000599608  0.000568306     -31.5279 
         300      2.25333 -0.000234757  0.000590882     -31.5279 
         300      2.61333  9.01165e-05  0.000592291     -31.5279 
         300            3  0.000355479  0.000572942     -31.5278 
         350            0            0            0     -29.3822 
         350     0.013333 -4.70655e-05   1.5252e-07     -29.3822 
         350     0.053333 -0.000174876  1.97344e-06     -29.3822 
         350         0.12 -0.000345987  6.90599e-06     -29.3822 
         350     0.213332  -0.00045459  1.27573e-05     -29.3822 
         350     0.333332 -0.000451764  1.55547e-05     -29.3822 
         350         0.48 -0.000407156  1.50129e-05     -29.3822 
         350     0.653331 -0.000388198  1.62502e-05     -29.3822 
         350     0.853332 -0.000336751  2.73521e-05     -29.3822 
         350         1.08 -0.000156896  5.37155e-05     -29.3822 
         350      1.33333  5.75183e-05   8.9975e-05     -29.3822 
         350      1.61333  0.000152508  0.000124405     -29.3822 
         350         1.92  0.000191952  0.000153157     -29.3822 
         350      2.25333  0.000212841  0.000175881     -29.3821 
         350      2.61333  0.000218509  0.000191421     -29.3821 
         350            3  0.000207356  0.000198886     -29.3821 
         400            0           -0           -0     -27.2382 
         400     0.013333 -0.000466956 -8.15185e-08     -27.2382 
         400     0.053333  -0.00160538 -2.06656e-06     -27.2382 
         400         0.12  -0.00278448 -1.47101e-05     -27.2382 
         400     0.213332  -0.00337761 -5.52271e-05     -27.2382 
         400     0.333332   -0.0032618  -0.00013869     -27.2382 
         400         0.48  -0.00282768 -0.000266212     -27.2382 
         400     0.653331  -0.00250839 -0.000426354     -27.2382 
         400     0.853332  -0.00240503 -0.000602317     -27.2382 
         400         1.08  -0.00228052 -0.000774131     -27.2382 
         400      1.33333  -0.00191725 -0.000925629     -27.2382 
         400      1.61333  -0.00143154  -0.00105414     -27.2381 
         400         1.92 -0.000962552   -0.0011584     -27.2381 
         400      2.25333  -0.00050435  -0.00122995     -27.2381 
         400      2.61333 -6.78947e-05  -0.00126271     -27.2381 
         400            3  0.000309154  -0.00125398      -27.238 
         450            0 -5.39858e-20 -9.43518e-30     -25.0939 
         450     0.013333  -0.00014391  5.15806e-07     -25.0939 
         450     0.053333  -0.00063708  7.35707e-06     -25.0939 
         450         0.12  -0.00152811  3.06695e-05     -25.0939 
         450     0.213332  -0.00257643  7.40147e-05     -25.0939 
         450     0.333332   -0.0033937  0.000129974     -25.0939 
         450         0.48  -0.00379445   0.00018789     -25.0939 
         450     0.653331  -0.00385939  0.000243886     -25.0939 
         450     0.853332  -0.00368863  0.000303003     -25.0939 
         450         1.08  -0.00326835   0.00037311     -25.0939 
         450      1.33333  -0.00265697  0.000453777     -25.0939 
         450      1.61333  -0.00205203  0.000532811     -25.0939 
         450         1.92  -0.00147684  0.000599433     -25.0938 
         450      2.25333 -0.000897999  0.000649745     -25.0938 
         450      2.61333 -0.000329005  0.000680119     -25.0938 
         450            3  0.000184496  0.000688031     -25.0937 
         500            0           -0           -0     -22.9484 
         500     0.013333 -1.90046e-05  2.44202e-08     -22.9484 
         500     0.053333 -5.73727e-05  3.48728e-07     -22.9484 
         500         0.12 -0.000100034  1.33119e-06     -22.9484 
         500     0.213332 -9.61712e-05  2.29092e-06     -22.9484 
         500     0.333332  2.85297e-06  9.47013e-07     -22.9484 
         500         0.48  0.000190132  -4.8491e-06     -22.9484 
         500     0.653331  0.000409666 -1.49025e-05     -22.9484 
         500     0.853332  0.000609874 -2.75027e-05     -22.9484 
         500         1.08  0.000740634 -4.28639e-05     -22.9484 
         500      1.33333  0.000744127 -6.38086e-05     -22.9484 
         500      1.61333  0.000640113 -9.09157e-05     -22.9484 
         500         1.92  0.000518676 -0.000120228     -22.9484 
         500      2.25333  0.000396678 -0.000148508     -22.9484 
         500      2.61333  0.000271134 -0.000173562     -22.9484 
         500            3  0.000146177 -0.000193787     -22.9484 
         550            0           -0           -0     -20.8031 
         550     0.013333  0.000416933  4.18588e-09     -20.8031 
         550     0.053333   0.00149896  6.55839e-07     -20.8031 
         550         0.12   0.00274041  6.87419e-06     -20.8031 
         550     0.213332   0.00357854  3.05828e-05     -20.8031 
         550     0.333332   0.00377702  8.48795e-05     -20.8031 
         550         0.48   0.00354832  0.000174604     -20.8031 
         550     0.653331   0.00326245  0.000294405     -20.8031 
         550     0.853332   0.00310668  0.000433225     -20.8031 
         550         1.08   0.00298303  0.000576883     -20.8031 
         550      1.33333   0.00269177  0.000711821     -20.8031 
         550      1.61333   0.00222489  0.000832063     -20.8031 
         550         1.92   0.00171372  0.000936628     -20.8032 
         550      2.25333   0.00118082   0.00102022     -20.8032 
         550      2.61333  0.000638166   0.00107656     -20.8032 
         550            3  0.000120575   0.00110086     -20.8033 
         600            0            0            0     -18.6593 
         600     0.013333  1.04948e-05 -3.28606e-07     -18.6593 
         600     0.053333  0.000149119 -4.89437e-06     -18.6593 
         600         0.12  0.000546471 -2.16943e-05     -18.6593 
         600     0.213332    0.0011398 -5.60097e-05     -18.6593 
         600     0.333332   0.00165391  -0.00010468     -18.6593 
         600         0.48   0.00186487 -0.000158907     -18.6593 
         600     0.653331   0.00176827 -0.000212726     -18.6593 
         600     0.853332   0.00147243 -0.000266515     -18.6593 
         600         1.08   0.00108178 -0.000321721     -18.6593 
         600      1.33333  0.000738949 -0.000373536     -18.6593 
         600      1.61333  0.000550659 -0.000413787     -18.6593 
         600         1.92  0.000414702  -0.00044071     -18.6593 
         600      2.25333  0.000261967 -0.000455007     -18.6593 
         600      2.61333  9.58187e-05 -0.000456349     -18.6593 
         600            3 -5.93255e-05 -0.000443817     -18.6594 
         650            0            0            0     -16.5167 
         650     0.013333 -0.000169261  5.83093e-07     -16.5167 
         650     0.053333 -0.000769943   8.4708e-06     -16.5167 
         650         0.12  -0.00191529  3.63689e-05     -16.5167 
         650     0.213332  -0.00337621  9.11312e-05     -16.5167 
         650     0.333332  -0.00465605  0.000166581     -16.5167 
         650         0.48  -0.00540883  0.000249437     -16.5167 
         650     0.653331  -0.00564667  0.000331276     -16.5167 
         650     0.853332  -0.00552536  0.000413816     -16.5167 
         650         1.08  -0.00510107   0.00050462     -16.5167 
         650      1.33333   -0.0044133  0.000606302     -16.5167 
         650      1.61333   -0.0036402  0.000710141     -16.5167 
         650         1.92  -0.00289801  0.000803904     -16.5167 
         650      2.25333   -0.0021307   0.00088137     -16.5167 
         650      2.61333  -0.00132657  0.000937921     -16.5166 
         650            3 -0.000534387  0.000969416     -16.5166 
         700            0           -0           -0     -14.3702 
         700     0.013333 -4.35089e-05 -3.14331e-07     -14.3702 
         700     0.053333 -5.70784e-05 -4.64299e-06     -14.3702 
         700         0.12  0.000126635 -2.04794e-05     -14.3702 
         700     0.213332  0.000524727 -5.32644e-05     -14.3702 
         700     0.333332  0.000964085 -0.000102149     -14.3702 
         700         0.48   0.00126873 -0.000162127     -14.3702 
         700     0.653331   0.00138986 -0.000229739     -14.3702 
         700     0.853332   0.00134532 -0.000305826     -14.3702 
         700         1.08   0.00113669 -0.000393107     -14.3702 
         700      1.33333  0.000811848 -0.000490205     -14.3702 
         700      1.61333  0.000517524 -0.000588559     -14.3702 
         700         1.92   0.00032818 -0.000678222     -14.3702 
         700      2.25333  0.000177147 -0.000754261     -14.3703 
         700      2.61333  2.93349e-05 -0.000812502     -14.3703 
         700            3 -0.000106442 -0.000849056     -14.3703 
         750            0           -0           -0     -12.2265 
         750     0.013333 -0.000201933  1.64935e-07     -12.2265 
         750     0.053333 -0.000755304  2.19254e-06     -12.2265 
         750         0.12  -0.00150872  7.94417e-06     -12.2265 
         750     0.213332  -0.00217152  1.47191e-05     -12.2265 
         750     0.333332  -0.00249158  1.49056e-05     -12.2265 
         750         0.48  -0.00245189  1.85919e-06     -12.2265 
         750     0.653331  -0.00223198 -2.45295e-05     -12.2265 
         750     0.853332  -0.00198652 -5.82068e-05     -12.2265 
         750         1.08  -0.00172512 -9.13427e-05     -12.2265 
         750      1.33333  -0.00141277 -0.000119711     -12.2265 
         750      1.61333  -0.00109844 -0.000145114     -12.2265 
         750         1.92 -0.000834294 -0.000170698     -12.2265 
         750      2.25333 -0.000580868 -0.000195464     -12.2265 
         750      2.61333 -0.000319427 -0.000217248     -12.2265 
         750            3 -6.33177e-05 -0.000234281     -12.2265 
         800            0  1.70695e-19  8.62376e-27     -10.0793 
         800     0.013333  0.000272924 -4.74712e-07     -10.0793 
         800     0.053333   0.00114559 -6.78397e-06     -10.0793 
         800         0.12   0.00255866 -2.83075e-05     -10.0793 
         800     0.213332   0.00414312 -6.79347e-05     -10.0793 
         800     0.333332   0.00536185 -0.000116763     -10.0793 
         800         0.48   0.00592754 -0.000160944     -10.0793 
         800     0.653331   0.00595374 -0.000193125     -10.0793 
         800     0.853332   0.00568965 -0.000216705     -10.0793 
         800         1.08   0.00523404 -0.000241437     -10.0793 
         800      1.33333   0.00458163 -0.000274038     -10.0793 
         800      1.61333   0.00383212 -0.000311392     -10.0793 
         800         1.92   0.00311616  -0.00034496     -10.0793 
         800      2.25333   0.00238754 -0.000371244     -10.0793 
         800      2.61333   0.00161897 -0.000389189     -10.0794 
         800            3  0.000836341  -0.00039788     -10.0794 
         850            0            0            0     -7.93606 
         850     0.013333  0.000288545  4.70908e-07     -7.93606 
         850     0.053333  0.000903273  7.33317e-06     -7.93606 
         850         0.12   0.00125885  3.49726e-05     -7.93606 
         850     0.213332  0.000957869  9.97018e-05     -7.93606 
         850     0.333332  0.000110392  0.000209788     -7.93606 
         850         0.48  -0.00082767  0.000361111     -7.93606 
         850     0.653331  -0.00147011  0.000542996     -7.93606 
         850     0.853332  -0.00169069  0.000746855     -7.93606 
         850         1.08  -0.00154038  0.000968021     -7.93606 
         850      1.33333  -0.00117843   0.00119976     -7.93606 
         850      1.61333   -0.0008509   0.00142915     -7.93606 
         850         1.92 -0.000675179   0.00164185     -7.93606 
         850      2.25333 -0.000543352   0.00182815     -7.93605 
         850      2.61333  -0.00038641    0.0019787     -7.93605 
         850            3 -0.000226054   0.00208413     -7.93604 
         900            0 -1.36538e-19 -5.29222e-27      -5.7924 
         900     0.013333  -0.00036887  2.65157e-07      -5.7924 
         900     0.053333  -0.00140345   3.5977e-06      -5.7924 
         900         0.12  -0.00286937  1.36741e-05      -5.7924 
         900     0.213332  -0.00431045  2.81754e-05      -5.7924 
         900     0.333332  -0.00528338  3.74288e-05      -5.7924 
         900         0.48  -0.00565691  3.11941e-05      -5.7924 
         900     0.653331  -0.00562636  6.06726e-06      -5.7924 
         900     0.853332  -0.00544518  -3.3349e-05     -5.79241 
         900         1.08  -0.00519209 -7.76676e-05     -5.79241 
         900      1.33333  -0.00478433 -0.000117301     -5.79241 
         900      1.61333  -0.00418098 -0.000147631      -5.7924 
         900         1.92  -0.00348288 -0.000170789     -5.79239 
         900      2.25333  -0.00275548 -0.000189829     -5.79237 
         900      2.61333  -0.00200387 -0.000204675     -5.79234 
         900            3  -0.00122193 -0.000213987      -5.7923 
         950            0 -1.36608e-19 -1.61152e-27     -3.64593 
         950     0.013333 -0.000161879 -2.73563e-07     -3.64593 
         950     0.053333 -0.000486071 -4.21465e-06     -3.64594 
         950         0.12 -0.000668747  -1.9799e-05     -3.64594 
         950     0.213332 -0.000510387 -5.55072e-05     -3.64594 
         950     0.333332 -8.54287e-05 -0.000114953     -3.64594 
         950         0.48  0.000366602 -0.000195317     -3.64594 
         950     0.653331  0.000658255 -0.000291223     -3.64594 
         950     0.853332  0.000731729 -0.000399337     -3.64593 
         950         1.08  0.000602498 -0.000518818     -3.64593 
         950      1.33333   0.00034827 -0.000646849     -3.64593 
         950      1.61333  0.000122758 -0.000775411     -3.64593 
         950         1.92  2.92439e-05 -0.000895002     -3.64594 
         950      2.25333 -4.39853e-06  -0.00100042     -3.64594 
         950      2.61333 -3.62012e-05  -0.00108747     -3.64594 
         950            3 -7.15593e-05  -0.00115151     -3.64595 
        1000            0           -0           -0     -1.50095 
        1000     0.013333  0.000101445 -3.81435e-08     -1.50095 
        1000     0.053333  0.000391843 -4.55821e-07     -1.50095 
        1000         0.12  0.000771443 -1.28939e-06     -1.50095 
        1000     0.213332   0.00110645 -1.02807e-06     -1.50095 
        1000     0.333332   0.00130011  2.95502e-06     -1.50095 
        1000         0.48   0.00135377  1.25093e-05     -1.50095 
        1000     0.653331   0.00133793  2.76036e-05     -1.50095 
        1000     0.853332   0.00131919  4.68068e-05     -1.50095 
        1000         1.08   0.00131174  6.78604e-05     -1.50095 
        1000      1.33333   0.00127049  8.75389e-05     -1.50095 
        1000      1.61333   0.00114357   0.00010271     -1.50095 
        1000         1.92  0.000953425  0.000112738     -1.50096 
        1000      2.25333    0.0007557  0.000119684     -1.50096 
        1000      2.61333  0.000564028  0.000124003     -1.50097 
        1000            3  0.000366556  0.000125273     -1.50098 
