Variables = x, y, u, v, p

Zone, I=416, F=POINT
         -50            0            0            0     -44.4379 
         -50     0.013333 -0.000213778 -2.89041e-08     -44.4379 
         -50     0.053333 -0.000209024  3.06196e-08     -44.4379 
         -50         0.12 -0.000226182  4.14642e-07     -44.4379 
         -50     0.213332 -0.000245245  1.18191e-06     -44.4379 
         -50     0.333332 -0.000256573  1.92497e-06     -44.4378 
         -50         0.48 -0.000259054  1.74303e-06     -44.4377 
         -50     0.653331 -0.000255405   1.4862e-06     -44.4376 
         -50     0.853332 -0.000246613    1.556e-06     -44.4374 
         -50         1.08 -0.000232879   7.5351e-07     -44.4371 
         -50      1.33333 -0.000216643  3.60321e-07     -44.4366 
         -50      1.61333 -0.000201077 -1.14235e-06     -44.4361 
         -50         1.92 -0.000186617 -2.00201e-06     -44.4353 
         -50      2.25333 -0.000184454 -6.09881e-06     -44.4343 
         -50      2.61333  -0.00018842 -8.77137e-06     -44.4331 
         -50            3 -0.000185044 -3.59746e-06     -44.4316 
         -25            0 -1.84103e-19 -7.33615e-24     -42.6818 
         -25     0.013333 -0.000158029 -2.77195e-08     -42.6818 
         -25     0.053333 -0.000153837 -2.25976e-07     -42.6818 
         -25         0.12  -0.00015727 -8.72242e-07     -42.6818 
         -25     0.213332 -0.000157305 -2.18618e-06     -42.6818 
         -25     0.333332 -0.000156174 -4.17347e-06     -42.6818 
         -25         0.48 -0.000157548 -6.73864e-06     -42.6817 
         -25     0.653331 -0.000162672 -9.94137e-06     -42.6817 
         -25     0.853332 -0.000168434 -1.33785e-05     -42.6816 
         -25         1.08   -0.0001691 -1.65931e-05     -42.6815 
         -25      1.33333 -0.000163961 -1.91527e-05     -42.6813 
         -25      1.61333 -0.000156546 -2.08663e-05     -42.6811 
         -25         1.92 -0.000149732 -2.13485e-05     -42.6808 
         -25      2.25333 -0.000146293 -2.09722e-05     -42.6805 
         -25      2.61333 -0.000141519 -1.89171e-05       -42.68 
         -25            3 -0.000131994 -1.47412e-05     -42.6794 
           0            0            0            0     -41.2327 
           0     0.013333 -0.000409076   0.00024864     -41.2347 
           0     0.053333 -0.000235067  0.000126167     -41.2373 
           0         0.12 -0.000178244  8.26235e-05     -41.2402 
           0     0.213332 -0.000160834  6.41619e-05     -41.2434 
           0     0.333332 -0.000159723  5.39867e-05     -41.2465 
           0         0.48 -0.000159922  4.73999e-05     -41.2497 
           0     0.653331 -0.000157836  4.34651e-05     -41.2529 
           0     0.853332 -0.000154043  4.11836e-05     -41.2559 
           0         1.08 -0.000150421  3.98092e-05     -41.2589 
           0      1.33333 -0.000145845  3.88315e-05     -41.2617 
           0      1.61333 -0.000138762  3.78172e-05     -41.2644 
           0         1.92 -0.000134333   3.6267e-05      -41.267 
           0      2.25333 -0.000135881  3.41904e-05     -41.2694 
           0      2.61333 -0.000131204   3.3485e-05     -41.2717 
           0            3 -0.000115884  3.41153e-05     -41.2738 
          20            0   7.7568e-05 -9.61768e-05     -40.3633 
          20     0.013333   6.9146e-05 -9.56815e-05     -40.3633 
          20     0.053333  4.36585e-05  -9.3898e-05     -40.3633 
          20         0.12   1.3136e-06 -8.98693e-05     -40.3633 
          20     0.213332 -5.42244e-05  -8.1842e-05     -40.3632 
          20     0.333332 -0.000110448 -6.72049e-05     -40.3632 
          20         0.48 -0.000147373 -4.32791e-05     -40.3631 
          20     0.653331  -0.00015871 -9.83129e-06     -40.3631 
          20     0.853332 -0.000164884  2.90829e-05      -40.363 
          20         1.08 -0.000190808  6.79355e-05     -40.3629 
          20      1.33333 -0.000229681  0.000102276     -40.3628 
          20      1.61333 -0.000269312  0.000129436     -40.3626 
          20         1.92 -0.000296598  0.000147341     -40.3624 
          20      2.25333 -0.000303691  0.000155538     -40.3622 
          20      2.61333 -0.000291911  0.000155741      -40.362 
          20            3 -0.000263524  0.000152083     -40.3617 
          40            0           -0           -0     -39.4882 
          40     0.013333  6.25852e-05  4.45691e-07     -39.4882 
          40     0.053333  0.000378331  7.49056e-06     -39.4882 
          40         0.12  0.000405256  3.70536e-05     -39.4882 
          40     0.213332  0.000128409  0.000106795     -39.4882 
          40     0.333332 -9.10708e-05  0.000222109     -39.4882 
          40         0.48 -0.000225148  0.000363486     -39.4881 
          40     0.653331 -0.000574502  0.000499459     -39.4881 
          40     0.853332 -0.000794983  0.000639681      -39.488 
          40         1.08 -0.000691161  0.000788682     -39.4878 
          40      1.33333 -0.000518795  0.000915574     -39.4876 
          40      1.61333  -0.00037358  0.000995675     -39.4874 
          40         1.92 -0.000252686   0.00101873     -39.4871 
          40      2.25333 -0.000162011  0.000985785     -39.4867 
          40      2.61333 -0.000104288  0.000909324     -39.4862 
          40            3 -6.90007e-05  0.000808521     -39.4856 
          60            0           -0           -0     -38.6046 
          60     0.013333 -6.04905e-05  9.91075e-07     -38.6046 
          60     0.053333  -0.00017747  1.45175e-05     -38.6046 
          60         0.12 -0.000848094  6.23087e-05     -38.6046 
          60     0.213332  -0.00190397  0.000154663     -38.6046 
          60     0.333332  -0.00280914  0.000280653     -38.6046 
          60         0.48  -0.00323831  0.000426754     -38.6046 
          60     0.653331   -0.0031185  0.000597028     -38.6046 
          60     0.853332  -0.00254461  0.000799405     -38.6046 
          60         1.08   -0.0018752   0.00101461     -38.6045 
          60      1.33333    -0.001334   0.00120702     -38.6045 
          60      1.61333 -0.000858027   0.00134775     -38.6044 
          60         1.92 -0.000286482   0.00141523     -38.6044 
          60      2.25333  0.000132373   0.00140675     -38.6043 
          60      2.61333  0.000383659   0.00133446     -38.6041 
          60            3  0.000542204   0.00121869      -38.604 
          80            0           -0           -0     -37.7606 
          80     0.013333  7.26857e-05  7.57317e-07     -37.7606 
          80     0.053333  0.000335901  1.14753e-05     -37.7606 
          80         0.12  0.000176686  5.19279e-05     -37.7606 
          80     0.213332 -0.000491879  0.000137514     -37.7606 
          80     0.333332  -0.00127536  0.000266513     -37.7606 
          80         0.48  -0.00174561  0.000426823     -37.7606 
          80     0.653331  -0.00168123  0.000611675     -37.7606 
          80     0.853332  -0.00107853  0.000817994     -37.7606 
          80         1.08 -0.000346475   0.00102613     -37.7606 
          80      1.33333  7.18311e-06   0.00120268     -37.7606 
          80      1.61333  5.17196e-05   0.00132986     -37.7606 
          80         1.92  0.000113824   0.00139578     -37.7605 
          80      2.25333  0.000149024   0.00139588     -37.7605 
          80      2.61333  0.000162429   0.00133811     -37.7604 
          80            3  0.000157909   0.00123823     -37.7603 
         100            0           -0           -0     -36.9359 
         100     0.013333  0.000204881   5.9601e-07     -36.9359 
         100     0.053333  0.000829598  9.52294e-06     -36.9359 
         100         0.12   0.00113462  4.60372e-05     -36.9359 
         100     0.213332  0.000835508  0.000129964     -36.9359 
         100     0.333332  0.000236144  0.000265953     -36.9359 
         100         0.48 -0.000167672  0.000443517     -36.9359 
         100     0.653331 -0.000130556  0.000648224     -36.9359 
         100     0.853332  0.000164106  0.000859181     -36.9359 
         100         1.08  0.000244001   0.00104554     -36.9359 
         100      1.33333  5.80026e-05   0.00118936     -36.9359 
         100      1.61333 -7.85381e-05   0.00129288     -36.9359 
         100         1.92 -0.000115116   0.00134487     -36.9359 
         100      2.25333 -0.000149493   0.00133829     -36.9358 
         100      2.61333 -0.000179509    0.0012796     -36.9358 
         100            3 -0.000191676   0.00118109     -36.9358 
         150            0            0            0     -34.9187 
         150     0.013333 -0.000526223  2.01771e-07     -34.9187 
         150     0.053333  -0.00161922  2.00222e-06     -34.9187 
         150         0.12  -0.00287875  2.52993e-06     -34.9187 
         150     0.213332  -0.00369195 -1.22656e-05     -34.9187 
         150     0.333332  -0.00384351 -5.94739e-05     -34.9187 
         150         0.48  -0.00360894 -0.000144771     -34.9187 
         150     0.653331   -0.0033291  -0.00025931     -34.9187 
         150     0.853332  -0.00304302 -0.000384535     -34.9187 
         150         1.08  -0.00258209 -0.000501128     -34.9187 
         150      1.33333   -0.0019464 -0.000598465     -34.9187 
         150      1.61333  -0.00127498 -0.000677043     -34.9186 
         150         1.92 -0.000608292 -0.000730143     -34.9186 
         150      2.25333 -2.59995e-05 -0.000751657     -34.9185 
         150      2.61333  0.000427988 -0.000743551     -34.9184 
         150            3  0.000736214 -0.000708904     -34.9183 
         200            0           -0           -0     -32.9264 
         200     0.013333 -0.000341672 -2.46318e-07     -32.9264 
         200     0.053333  -0.00087275 -4.14988e-06     -32.9264 
         200         0.12  -0.00130364 -2.13364e-05     -32.9264 
         200     0.213332  -0.00136874 -6.36053e-05     -32.9264 
         200     0.333332  -0.00117234  -0.00013569     -32.9264 
         200         0.48 -0.000992113 -0.000232567     -32.9264 
         200     0.653331 -0.000981841 -0.000345596     -32.9264 
         200     0.853332  -0.00108134 -0.000464787     -32.9264 
         200         1.08  -0.00108825 -0.000576262     -32.9264 
         200      1.33333 -0.000909726 -0.000667737     -32.9264 
         200      1.61333  -0.00066408 -0.000736227     -32.9264 
         200         1.92 -0.000419646 -0.000777096     -32.9264 
         200      2.25333 -0.000194373  -0.00078628     -32.9264 
         200      2.61333 -7.48404e-06 -0.000765024     -32.9264 
         200            3  0.000131554 -0.000716941     -32.9263 
         250            0 -2.41764e-19 -5.87863e-26     -30.9437 
         250     0.013333    -8.88e-05 -6.85444e-07     -30.9437 
         250     0.053333  0.000119632 -1.00313e-05     -30.9437 
         250         0.12  0.000738162 -4.33555e-05     -30.9437 
         250     0.213332   0.00164047 -0.000109058     -30.9437 
         250     0.333332   0.00240699 -0.000200335     -30.9437 
         250         0.48   0.00276824 -0.000304102     -30.9437 
         250     0.653331   0.00273232 -0.000414644     -30.9437 
         250     0.853332   0.00238331 -0.000533986     -30.9437 
         250         1.08   0.00185331 -0.000659102     -30.9437 
         250      1.33333   0.00135886 -0.000776656     -30.9437 
         250      1.61333  0.000949445 -0.000873241     -30.9437 
         250         1.92  0.000505949 -0.000941398     -30.9437 
         250      2.25333  8.97078e-05 -0.000975805     -30.9438 
         250      2.61333  -0.00026376 -0.000973771     -30.9438 
         250            3 -0.000540102 -0.000937476     -30.9439 
         300            0           -0           -0     -28.9654 
         300     0.013333  0.000139198 -7.18828e-07     -28.9654 
         300     0.053333  0.000926151  -1.0024e-05     -28.9654 
         300         0.12   0.00218427 -4.01376e-05     -28.9654 
         300     0.213332   0.00347656 -9.12992e-05     -28.9654 
         300     0.333332    0.0042998 -0.000148755     -28.9654 
         300         0.48   0.00455383 -0.000198569     -28.9654 
         300     0.653331   0.00443487 -0.000241575     -28.9654 
         300     0.853332   0.00403001 -0.000290905     -28.9654 
         300         1.08   0.00332766 -0.000355548     -28.9654 
         300      1.33333   0.00252834 -0.000426927     -28.9654 
         300      1.61333   0.00181808 -0.000488204     -28.9654 
         300         1.92    0.0010874 -0.000533282     -28.9655 
         300      2.25333  0.000381854 -0.000560347     -28.9655 
         300      2.61333 -0.000247665 -0.000566731     -28.9656 
         300            3 -0.000761779 -0.000552706     -28.9657 
         350            0            0            0     -26.9896 
         350     0.013333  0.000170042 -4.12697e-07     -26.9896 
         350     0.053333  0.000960598 -5.49011e-06     -26.9896 
         350         0.12   0.00205363 -2.02194e-05     -26.9896 
         350     0.213332   0.00302638 -4.02815e-05     -26.9896 
         350     0.333332    0.0035451 -5.32853e-05     -26.9896 
         350         0.48   0.00364761 -5.08721e-05     -26.9896 
         350     0.653331   0.00356276 -3.62595e-05     -26.9896 
         350     0.853332   0.00335864 -2.21587e-05     -26.9896 
         350         1.08   0.00291378 -2.22053e-05     -26.9896 
         350      1.33333   0.00227101 -3.74555e-05     -26.9896 
         350      1.61333   0.00165369 -5.53669e-05     -26.9896 
         350         1.92   0.00105225 -6.98036e-05     -26.9896 
         350      2.25333  0.000463958 -8.14083e-05     -26.9896 
         350      2.61333 -8.09977e-05 -8.93443e-05     -26.9897 
         350            3 -0.000541209 -9.32484e-05     -26.9898 
         400            0           -0           -0     -25.0145 
         400     0.013333  1.67481e-05  -4.3648e-07     -25.0145 
         400     0.053333  0.000447566 -6.32101e-06     -25.0145 
         400         0.12    0.0012329 -2.69292e-05     -25.0145 
         400     0.213332   0.00217895 -6.65167e-05     -25.0145 
         400     0.333332   0.00291976 -0.000118998     -25.0145 
         400         0.48   0.00324849 -0.000173323     -25.0145 
         400     0.653331   0.00322951 -0.000222941     -25.0145 
         400     0.853332   0.00300481 -0.000268904     -25.0145 
         400         1.08   0.00263485   -0.0003154     -25.0145 
         400      1.33333   0.00216804  -0.00036257     -25.0145 
         400      1.61333   0.00168898 -0.000404332     -25.0145 
         400         1.92    0.0011881 -0.000435274     -25.0146 
         400      2.25333   0.00067358 -0.000453342     -25.0146 
         400      2.61333  0.000174378 -0.000456696     -25.0146 
         400            3 -0.000269929 -0.000444766     -25.0147 
         450            0 -3.09145e-19 -5.31344e-27     -23.0429 
         450     0.013333 -0.000645891  5.62082e-07     -23.0429 
         450     0.053333  -0.00219778  7.57991e-06     -23.0429 
         450         0.12  -0.00438108  2.85038e-05     -23.0429 
         450     0.213332  -0.00642598  5.79623e-05     -23.0429 
         450     0.333332  -0.00765308  7.64602e-05     -23.0429 
         450         0.48  -0.00797762  6.58572e-05     -23.0429 
         450     0.653331  -0.00778367     2.32e-05     -23.0429 
         450     0.853332  -0.00738411 -3.93562e-05     -23.0429 
         450         1.08  -0.00676118 -0.000103471     -23.0429 
         450      1.33333   -0.0058366 -0.000157521     -23.0429 
         450      1.61333  -0.00473435 -0.000203077     -23.0429 
         450         1.92  -0.00354901 -0.000243781     -23.0429 
         450      2.25333  -0.00231231 -0.000277105     -23.0428 
         450      2.61333  -0.00108085 -0.000301092     -23.0427 
         450            3   5.1581e-05 -0.000314374     -23.0426 
         500            0           -0           -0     -21.0651 
         500     0.013333  0.000312901  -3.0317e-07     -21.0651 
         500     0.053333   0.00147434 -3.97416e-06     -21.0651 
         500         0.12   0.00304914 -1.41955e-05     -21.0651 
         500     0.213332    0.0045128 -2.63526e-05     -21.0651 
         500     0.333332   0.00544063 -2.84613e-05     -21.0651 
         500         0.48   0.00579354 -1.02201e-05     -21.0651 
         500     0.653331   0.00581557   3.0078e-05     -21.0651 
         500     0.853332    0.0057064  8.55615e-05     -21.0651 
         500         1.08   0.00542996  0.000143505     -21.0651 
         500      1.33333   0.00484716  0.000191321     -21.0651 
         500      1.61333   0.00400191  0.000225373     -21.0652 
         500         1.92   0.00306356  0.000249672     -21.0652 
         500      2.25333    0.0020774  0.000265039     -21.0652 
         500      2.61333   0.00107567  0.000270763     -21.0653 
         500            3  0.000126264  0.000266268     -21.0653 
         550            0           -0           -0     -19.0937 
         550     0.013333 -4.20995e-05  8.61811e-08     -19.0937 
         550     0.053333  8.59568e-05     1.35e-06     -19.0937 
         550         0.12  0.000148186  6.57944e-06     -19.0937 
         550     0.213332  5.09711e-05  1.95424e-05     -19.0937 
         550     0.333332 -0.000205305  4.33468e-05     -19.0937 
         550         0.48 -0.000525782  7.85137e-05     -19.0937 
         550     0.653331 -0.000804715  0.000122673     -19.0937 
         550     0.853332 -0.000989634   0.00017278     -19.0937 
         550         1.08  -0.00105832  0.000227864     -19.0937 
         550      1.33333 -0.000996703  0.000288552     -19.0937 
         550      1.61333  -0.00085139  0.000352782     -19.0937 
         550         1.92 -0.000699615   0.00041478     -19.0937 
         550      2.25333 -0.000548211  0.000469232     -19.0937 
         550      2.61333  -0.00039276   0.00051223     -19.0937 
         550            3 -0.000239256  0.000540869     -19.0937 
         600            0            0            0     -17.1221 
         600     0.013333  -0.00056677 -9.69534e-08     -17.1221 
         600     0.053333  -0.00172121 -2.13583e-06     -17.1221 
         600         0.12   -0.0029593 -1.41692e-05     -17.1221 
         600     0.213332  -0.00363308 -5.20751e-05     -17.1221 
         600     0.333332  -0.00354664 -0.000131187     -17.1221 
         600         0.48  -0.00303977 -0.000254909     -17.1221 
         600     0.653331   -0.0025828 -0.000413705     -17.1221 
         600     0.853332  -0.00237279 -0.000592415     -17.1222 
         600         1.08   -0.0022696 -0.000774604     -17.1222 
         600      1.33333  -0.00203868 -0.000946141     -17.1221 
         600      1.61333  -0.00165931   -0.0011009     -17.1221 
         600         1.92  -0.00126716  -0.00123718     -17.1221 
         600      2.25333 -0.000872686  -0.00134801     -17.1221 
         600      2.61333 -0.000474532  -0.00142516     -17.1221 
         600            3 -9.72525e-05  -0.00146207      -17.122 
         650            0            0            0     -15.1498 
         650     0.013333  0.000349627  5.11848e-07     -15.1498 
         650     0.053333   0.00135387  8.26491e-06     -15.1498 
         650         0.12   0.00210666  4.10857e-05     -15.1498 
         650     0.213332   0.00203219  0.000121153     -15.1498 
         650     0.333332   0.00124507   0.00026036     -15.1498 
         650         0.48  0.000348393  0.000452642     -15.1498 
         650     0.653331 -0.000154779  0.000682593     -15.1498 
         650     0.853332  -0.00013934  0.000936954     -15.1498 
         650         1.08  0.000197497   0.00120313     -15.1498 
         650      1.33333  0.000460793   0.00146187     -15.1498 
         650      1.61333  0.000415479   0.00169423     -15.1498 
         650         1.92  0.000262237   0.00189327     -15.1498 
         650      2.25333  0.000126143    0.0020524     -15.1498 
         650      2.61333   1.2206e-05    0.0021618     -15.1498 
         650            3 -9.74917e-05   0.00221186     -15.1498 
         700            0           -0           -0     -13.1798 
         700     0.013333 -0.000494021 -5.59009e-07     -13.1798 
         700     0.053333  -0.00133531 -8.78223e-06     -13.1798 
         700         0.12  -0.00191268 -4.22392e-05     -13.1798 
         700     0.213332  -0.00172305 -0.000120925     -13.1798 
         700     0.333332 -0.000900419 -0.000254318     -13.1798 
         700         0.48  1.58252e-05 -0.000436534     -13.1798 
         700     0.653331  0.000588493 -0.000655074     -13.1798 
         700     0.853332  0.000678256 -0.000901045     -13.1798 
         700         1.08  0.000370736  -0.00116774     -13.1798 
         700      1.33333 -3.56693e-05  -0.00144054     -13.1798 
         700      1.61333 -0.000209448  -0.00169751     -13.1798 
         700         1.92 -0.000197184  -0.00192388     -13.1798 
         700      2.25333 -0.000162023  -0.00211142     -13.1798 
         700      2.61333 -0.000146071  -0.00225004     -13.1798 
         700            3 -0.000128463  -0.00232923     -13.1798 
         750            0           -0           -0       -11.21 
         750     0.013333  7.38725e-05  6.43911e-08       -11.21 
         750     0.053333  0.000526949  1.06544e-06       -11.21 
         750         0.12    0.0010627  5.41053e-06       -11.21 
         750     0.213332   0.00151449  1.61879e-05       -11.21 
         750     0.333332   0.00181244  3.53751e-05       -11.21 
         750         0.48   0.00197776  6.35107e-05       -11.21 
         750     0.653331   0.00206808  0.000101245       -11.21 
         750     0.853332   0.00215202  0.000149974       -11.21 
         750         1.08   0.00226673  0.000209403       -11.21 
         750      1.33333   0.00232932  0.000273572       -11.21 
         750      1.61333   0.00219091  0.000332136       -11.21 
         750         1.92   0.00186926  0.000379645       -11.21 
         750      2.25333   0.00148318  0.000416466       -11.21 
         750      2.61333   0.00107826  0.000442136     -11.2101 
         750            3  0.000653887  0.000455155     -11.2101 
         800            0  1.13237e-19  1.53699e-26     -9.24096 
         800     0.013333  0.000398931  -3.5825e-07     -9.24096 
         800     0.053333   0.00181537  -4.8409e-06     -9.24096 
         800         0.12   0.00377129 -1.81021e-05     -9.24096 
         800     0.213332   0.00559493 -3.55334e-05     -9.24096 
         800     0.333332   0.00664457 -4.09973e-05     -9.24096 
         800         0.48   0.00677444  -1.7802e-05     -9.24096 
         800     0.653331   0.00633518  3.85868e-05     -9.24095 
         800     0.853332   0.00573308  0.000119229     -9.24095 
         800         1.08   0.00510725  0.000209685     -9.24095 
         800      1.33333     0.004425  0.000300113     -9.24095 
         800      1.61333   0.00370957  0.000388916     -9.24096 
         800         1.92   0.00300278  0.000477438     -9.24098 
         800      2.25333   0.00225907  0.000561518     -9.24101 
         800      2.61333   0.00146783  0.000635781     -9.24105 
         800            3  0.000663427  0.000695721     -9.24111 
         850            0            0            0     -7.27819 
         850     0.013333   2.4894e-05  1.29489e-06     -7.27819 
         850     0.053333 -7.39425e-05  1.96156e-05     -7.27819 
         850         0.12  -0.00130968  8.98298e-05     -7.27819 
         850     0.213332  -0.00390959  0.000243924     -7.27818 
         850     0.333332  -0.00701661  0.000486818     -7.27818 
         850         0.48  -0.00942928  0.000794304     -7.27819 
         850     0.653331   -0.0105579   0.00113589     -7.27819 
         850     0.853332   -0.0105187   0.00149617     -7.27819 
         850         1.08  -0.00965323   0.00187383     -7.27819 
         850      1.33333  -0.00833957    0.0022627     -7.27819 
         850      1.61333  -0.00703068   0.00264259     -7.27818 
         850         1.92  -0.00589605   0.00299013     -7.27816 
         850      2.25333  -0.00473122   0.00328918     -7.27813 
         850      2.61333  -0.00343413   0.00352489     -7.27808 
         850            3   -0.0020936   0.00368156     -7.27802 
         900            0 -6.84064e-19  6.52428e-27     -5.31288 
         900     0.013333  -0.00167554 -7.07105e-08     -5.31288 
         900     0.053333  -0.00574978 -2.68572e-06     -5.31288 
         900         0.12    -0.010581 -2.32612e-05     -5.31288 
         900     0.213332   -0.0140868 -9.89794e-05     -5.31289 
         900     0.333332   -0.0151541  -0.00027467     -5.31289 
         900         0.48   -0.0142617 -0.000573786     -5.31289 
         900     0.653331   -0.0127539 -0.000986144      -5.3129 
         900     0.853332   -0.0116505  -0.00148069      -5.3129 
         900         1.08    -0.011085  -0.00201987     -5.31291 
         900      1.33333   -0.0104969  -0.00256316      -5.3129 
         900      1.61333  -0.00935556  -0.00307593     -5.31289 
         900         1.92  -0.00778975  -0.00354278     -5.31286 
         900      2.25333  -0.00609645  -0.00395515     -5.31281 
         900      2.61333  -0.00437016  -0.00429579     -5.31273 
         900            3   -0.0025945  -0.00454262     -5.31262 
         950            0  -2.6041e-19 -1.16663e-25     -3.33895 
         950     0.013333 -8.09383e-05 -1.64689e-06     -3.33895 
         950     0.053333  0.000512681 -2.46175e-05     -3.33895 
         950         0.12   0.00258588 -0.000110683     -3.33895 
         950     0.213332   0.00620427 -0.000294668     -3.33895 
         950     0.333332     0.010216 -0.000577531     -3.33895 
         950         0.48    0.0132319 -0.000928649     -3.33895 
         950     0.653331    0.0146782  -0.00131447     -3.33895 
         950     0.853332    0.0147649  -0.00172232     -3.33894 
         950         1.08    0.0138228  -0.00215935     -3.33894 
         950      1.33333    0.0121123  -0.00262959     -3.33894 
         950      1.61333    0.0101038  -0.00311419     -3.33895 
         950         1.92   0.00829977   -0.0035763     -3.33897 
         950      2.25333   0.00660099  -0.00398859     -3.33902 
         950      2.61333   0.00483954  -0.00433081     -3.33909 
         950            3     0.002988  -0.00458426     -3.33919 
        1000            0           -0           -0     -1.37322 
        1000     0.013333   0.00124929 -1.05384e-07     -1.37322 
        1000     0.053333   0.00480494  -2.7421e-07     -1.37322 
        1000         0.12   0.00915128  7.80831e-06     -1.37322 
        1000     0.213332    0.0125553  5.06597e-05     -1.37322 
        1000     0.333332    0.0139833  0.000164089     -1.37321 
        1000         0.48    0.0137035  0.000369591     -1.37321 
        1000     0.653331    0.0127713  0.000662005     -1.37321 
        1000     0.853332    0.0120476   0.00101783      -1.3732 
        1000         1.08    0.0116745   0.00140636      -1.3732 
        1000      1.33333    0.0111735   0.00179314      -1.3732 
        1000      1.61333    0.0100648   0.00214852     -1.37321 
        1000         1.92   0.00848344   0.00246338     -1.37323 
        1000      2.25333   0.00678173    0.0027385     -1.37327 
        1000      2.61333   0.00506091   0.00296619     -1.37334 
        1000            3    0.0032755   0.00313283     -1.37344 
