Variables = x, y, u, v, p

Zone, I=20800, F=POINT
         -50            0            0            0  4.15838e-05 
         -50     0.000234 -1.84432e-08  3.61926e-11  4.15838e-05 
         -50     0.000939 -7.31158e-08  1.19458e-10  4.15837e-05 
         -50     0.002113 -1.61212e-07  1.71958e-10  4.15836e-05 
         -50     0.003759 -2.78631e-07  6.35633e-11  4.15835e-05 
         -50     0.005872 -4.19175e-07 -3.88041e-10  4.15833e-05 
         -50     0.008457 -5.75996e-07 -1.41863e-09  4.15831e-05 
         -50      0.01151 -7.40555e-07   -3.311e-09  4.15829e-05 
         -50     0.015036 -9.03943e-07 -6.39779e-09  4.15826e-05 
         -50     0.019031  -1.0562e-06 -1.10429e-08  4.15823e-05 
         -50     0.023493 -1.18724e-06 -1.76371e-08   4.1582e-05 
         -50     0.028429 -1.28718e-06 -2.66052e-08  4.15816e-05 
         -50     0.033831 -1.34612e-06  -3.8357e-08  4.15812e-05 
         -50     0.039706 -1.35503e-06 -5.33373e-08  4.15808e-05 
         -50     0.046047 -1.30576e-06 -7.19612e-08  4.15803e-05 
         -50     0.052863 -1.19139e-06 -9.46911e-08  4.15798e-05 
         -50      0.06015 -1.00665e-06 -1.21947e-07  4.15793e-05 
         -50       0.0679 -7.48328e-07 -1.54085e-07  4.15788e-05 
         -50     0.076126 -4.14126e-07 -1.91428e-07  4.15783e-05 
         -50     0.084816 -3.82592e-09 -2.33887e-07  4.15778e-05 
         -50     0.093982  4.81002e-07  -2.8245e-07  4.15772e-05 
         -50     0.103611  1.03645e-06 -3.37313e-07  4.15766e-05 
         -50     0.113718  1.65872e-06 -3.98081e-07  4.15761e-05 
         -50     0.124286   2.3407e-06  -4.6448e-07  4.15756e-05 
         -50     0.135333  3.07626e-06 -5.36695e-07   4.1575e-05 
         -50      0.14685  3.85657e-06  -6.1484e-07  4.15745e-05 
         -50     0.158827  4.67208e-06 -6.98901e-07  4.15739e-05 
         -50     0.171284  5.51488e-06 -7.88736e-07  4.15733e-05 
         -50     0.184201  6.37433e-06 -8.83392e-07  4.15727e-05 
         -50     0.197599  7.24277e-06 -9.81646e-07  4.15722e-05 
         -50     0.211455   8.1101e-06 -1.08167e-06  4.15717e-05 
         -50     0.225792  8.96981e-06  -1.1825e-06  4.15711e-05 
         -50       0.2406  9.81402e-06  -1.2851e-06  4.15701e-05 
         -50     0.255865  1.06366e-05 -1.39528e-06  4.15693e-05 
         -50     0.271613  1.14302e-05  -1.4993e-06  4.15691e-05 
         -50     0.287818  1.21867e-05 -1.59079e-06  4.15678e-05 
         -50     0.304506  1.29057e-05 -1.67663e-06   4.1566e-05 
         -50      0.32165  1.35845e-05 -1.76692e-06   4.1564e-05 
         -50     0.339278  1.42233e-05 -1.87439e-06  4.15623e-05 
         -50     0.357377  1.48201e-05 -2.01236e-06  4.15612e-05 
         -50      0.37593  1.53728e-05 -2.19291e-06  4.15611e-05 
         -50     0.394968  1.58797e-05 -2.42545e-06  4.15624e-05 
         -50     0.414461  1.63362e-05  -2.7135e-06  4.15652e-05 
         -50      0.43444  1.67381e-05 -3.05423e-06  4.15697e-05 
         -50     0.454872  1.70785e-05 -3.43525e-06  4.15758e-05 
         -50     0.475791  1.73505e-05 -3.83618e-06  4.15834e-05 
         -50     0.497163  1.75459e-05 -4.22697e-06  4.15921e-05 
         -50     0.519021  1.76579e-05 -4.57295e-06  4.16014e-05 
         -50      0.54135  1.76821e-05 -4.83795e-06  4.16105e-05 
         -50     0.564131  1.76194e-05 -4.99401e-06  4.16184e-05 
         -50       0.5874  1.74801e-05 -5.03462e-06  4.16237e-05 
         -50     0.611121  1.72818e-05 -4.96321e-06  4.16237e-05 
         -50      0.63533   1.6968e-05 -4.63774e-06  4.16104e-05 
         -50      0.65999  1.66137e-05 -4.42156e-06  4.15967e-05 
         -50     0.685139  1.62287e-05 -4.30873e-06  4.15832e-05 
         -50     0.710759   1.5823e-05 -4.29161e-06  4.15702e-05 
         -50     0.736828  1.54063e-05 -4.36024e-06  4.15582e-05 
         -50     0.763387  1.49862e-05 -4.50308e-06  4.15474e-05 
         -50     0.790396  1.45709e-05 -4.70683e-06   4.1538e-05 
         -50     0.817896  1.41662e-05 -4.95764e-06  4.15303e-05 
         -50     0.845843  1.37778e-05 -5.24035e-06  4.15242e-05 
         -50     0.874283  1.34091e-05 -5.54052e-06  4.15197e-05 
         -50      0.90317  1.30634e-05 -5.84319e-06  4.15167e-05 
         -50     0.932551  1.27413e-05 -6.13532e-06  4.15149e-05 
         -50     0.962401  1.24429e-05 -6.40461e-06   4.1514e-05 
         -50     0.992697  1.21671e-05 -6.64096e-06  4.15137e-05 
         -50      1.02349  1.19105e-05 -6.83737e-06  4.15135e-05 
         -50      1.05472  1.16695e-05 -6.98917e-06  4.15129e-05 
         -50      1.08645  1.14386e-05 -7.09558e-06  4.15114e-05 
         -50      1.11863   1.1212e-05 -7.15897e-06  4.15084e-05 
         -50       1.1513  1.09827e-05 -7.18546e-06  4.15035e-05 
         -50      1.18444  1.07437e-05  -7.1843e-06  4.14962e-05 
         -50      1.21802  1.04879e-05 -7.16753e-06  4.14863e-05 
         -50      1.25211  1.02082e-05 -7.14887e-06  4.14735e-05 
         -50      1.28663  9.89882e-06 -7.14243e-06   4.1458e-05 
         -50      1.32165  9.55459e-06 -7.16066e-06  4.14402e-05 
         -50      1.35712  9.17329e-06 -7.21175e-06  4.14209e-05 
         -50      1.39308  8.75412e-06 -7.29642e-06  4.14013e-05 
         -50      1.42951  8.30058e-06 -7.40342e-06  4.13833e-05 
         -50      1.46638  7.82052e-06 -7.50432e-06  4.13694e-05 
         -50      1.50375   7.3257e-06 -7.54741e-06   4.1363e-05 
         -50      1.54156  6.82584e-06 -7.51989e-06  4.13473e-05 
         -50      1.57987  6.31295e-06 -7.49211e-06  4.13299e-05 
         -50      1.61863  5.79173e-06 -7.46383e-06  4.13121e-05 
         -50      1.65788  5.26527e-06  -7.4339e-06  4.12938e-05 
         -50      1.69757  4.73818e-06  -7.4014e-06  4.12751e-05 
         -50      1.73776   4.2131e-06 -7.36541e-06   4.1256e-05 
         -50      1.77842  3.69371e-06 -7.32525e-06  4.12366e-05 
         -50      1.81952  3.18345e-06 -7.28039e-06  4.12169e-05 
         -50      1.86113   2.6842e-06  -7.2303e-06  4.11968e-05 
         -50      1.90316  2.19924e-06 -7.17478e-06  4.11764e-05 
         -50      1.94571  1.72998e-06 -7.11354e-06  4.11558e-05 
         -50      1.98869  1.27908e-06 -7.04662e-06   4.1135e-05 
         -50      2.03217  8.47408e-07 -6.97399e-06   4.1114e-05 
         -50      2.07612  4.36696e-07 -6.89585e-06  4.10928e-05 
         -50      2.12051  4.82969e-08 -6.81254e-06  4.10715e-05 
         -50       2.1654 -3.17606e-07 -6.72427e-06  4.10501e-05 
         -50      2.21073 -6.59898e-07  -6.6316e-06  4.10287e-05 
         -50      2.25656  -9.7883e-07 -6.53488e-06  4.10071e-05 
         -50      2.30283 -1.27384e-06 -6.43476e-06  4.09856e-05 
         -50       2.3496 -1.54554e-06 -6.33166e-06  4.09641e-05 
         -50      2.39685 -1.79404e-06 -6.22622e-06  4.09426e-05 
         -50      2.44452 -2.01967e-06 -6.11909e-06  4.09212e-05 
         -50      2.49271 -2.22348e-06 -6.01064e-06  4.08999e-05 
         -50      2.54132 -2.40592e-06 -5.90157e-06  4.08787e-05 
         -50      2.59044  -2.5682e-06 -5.79215e-06  4.08576e-05 
         -50         2.64 -2.71101e-06 -5.68297e-06  4.08368e-05 
         -50      2.69006 -2.83563e-06 -5.57417e-06  4.08161e-05 
         -50      2.74056 -2.94289e-06 -5.46617e-06  4.07956e-05 
         -50      2.79156 -3.03405e-06 -5.35893e-06  4.07753e-05 
         -50      2.84304 -3.11006e-06 -5.25259e-06  4.07553e-05 
         -50      2.89494 -3.17189e-06 -5.14719e-06  4.07355e-05 
         -50      2.94735 -3.22063e-06 -5.04241e-06   4.0716e-05 
         -50       3.0002 -3.25713e-06  -4.9382e-06  4.06967e-05 
         -50      3.05355 -3.28232e-06  -4.8341e-06  4.06777e-05 
         -50      3.10733 -3.29698e-06 -4.72995e-06   4.0659e-05 
         -50      3.16163 -3.30194e-06 -4.62524e-06  4.06406e-05 
         -50      3.21639 -3.29795e-06 -4.51975e-06  4.06224e-05 
         -50      3.27158 -3.28585e-06 -4.41336e-06  4.06045e-05 
         -50      3.32729 -3.26649e-06 -4.30584e-06  4.05868e-05 
         -50      3.38342 -3.24091e-06 -4.19752e-06  4.05694e-05 
         -50      3.44007 -3.21032e-06 -4.08874e-06  4.05521e-05 
         -50      3.49714  -3.1763e-06  -3.9806e-06  4.05351e-05 
         -50      3.55472 -3.14079e-06 -3.87445e-06  4.05182e-05 
         -50      3.61273 -3.10638e-06 -3.77268e-06  4.05015e-05 
         -50      3.67125 -3.07635e-06 -3.67824e-06  4.04848e-05 
         -50      3.73025 -3.05498e-06 -3.59543e-06  4.04681e-05 
         -50      3.78967 -3.03432e-06 -3.50776e-06  4.04532e-05 
         -50      3.84961 -3.00662e-06 -3.41352e-06   4.0439e-05 
         -50      3.90996 -2.97774e-06 -3.32043e-06  4.04248e-05 
         -50      3.97084 -2.93351e-06 -3.23338e-06  4.04094e-05 
         -50      4.03214 -2.89024e-06 -3.14824e-06  4.03939e-05 
         -50      4.09395 -2.84998e-06 -3.06393e-06  4.03784e-05 
         -50      4.15624  -2.8123e-06 -2.98045e-06  4.03631e-05 
         -50      4.21895  -2.7768e-06 -2.89792e-06   4.0348e-05 
         -50      4.28217   -2.743e-06 -2.81635e-06  4.03331e-05 
         -50      4.34582 -2.71057e-06 -2.73607e-06  4.03186e-05 
         -50      4.40998 -2.67911e-06 -2.65717e-06  4.03044e-05 
         -50      4.47457 -2.64837e-06 -2.58001e-06  4.02904e-05 
         -50      4.53968 -2.61805e-06 -2.50467e-06  4.02768e-05 
         -50      4.60525 -2.58797e-06 -2.43139e-06  4.02634e-05 
         -50      4.67125 -2.55802e-06 -2.36036e-06  4.02502e-05 
         -50      4.73777 -2.52806e-06  -2.2915e-06  4.02373e-05 
         -50       4.8047  -2.4981e-06 -2.22492e-06  4.02245e-05 
         -50      4.87216 -2.46812e-06 -2.16042e-06  4.02118e-05 
         -50      4.94003 -2.43821e-06 -2.09794e-06  4.01992e-05 
         -50      5.00843 -2.40842e-06 -2.03718e-06  4.01866e-05 
         -50      5.07724  -2.3789e-06 -1.97799e-06   4.0174e-05 
         -50      5.14658 -2.34968e-06 -1.92003e-06  4.01614e-05 
         -50      5.21639 -2.32087e-06 -1.86317e-06  4.01488e-05 
         -50      5.28661 -2.29249e-06 -1.80736e-06  4.01363e-05 
         -50      5.35736 -2.26443e-06 -1.75259e-06  4.01238e-05 
         -50      5.42852 -2.23651e-06 -1.69931e-06  4.01116e-05 
         -50      5.50021 -2.20832e-06 -1.64813e-06  4.00996e-05 
         -50      5.57231 -2.17927e-06 -1.60033e-06  4.00881e-05 
         -50      5.64493 -2.14843e-06 -1.55767e-06  4.00774e-05 
         -50      5.71803 -2.13189e-06 -1.50343e-06   4.0065e-05 
         -50      5.79154 -2.11011e-06 -1.45557e-06   4.0053e-05 
         -50      5.86558 -2.08463e-06 -1.41117e-06  4.00414e-05 
         -50      5.94003 -2.05697e-06 -1.36845e-06  4.00301e-05 
         -50      6.01501 -2.02842e-06 -1.32625e-06  4.00189e-05 
         -50       6.0904 -2.00017e-06 -1.28418e-06  4.00079e-05 
         -50      6.16632 -1.97302e-06 -1.24215e-06  3.99968e-05 
         -50      6.24271 -1.94755e-06 -1.20044e-06  3.99858e-05 
         -50       6.3195 -1.92401e-06  -1.1595e-06  3.99747e-05 
         -50      6.39683 -1.90227e-06 -1.11965e-06  3.99636e-05 
         -50      6.47457 -1.88196e-06 -1.08124e-06  3.99525e-05 
         -50      6.55284 -1.86241e-06 -1.04425e-06  3.99415e-05 
         -50      6.63152 -1.84285e-06 -1.00847e-06  3.99305e-05 
         -50      6.71073 -1.82239e-06 -9.73189e-07  3.99198e-05 
         -50      6.79034  -1.7996e-06 -9.39705e-07  3.99087e-05 
         -50      6.87049 -1.77716e-06 -9.07532e-07  3.98976e-05 
         -50      6.95111 -1.75546e-06 -8.76108e-07  3.98867e-05 
         -50      7.03214  -1.7342e-06 -8.45587e-07  3.98759e-05 
         -50       7.1137 -1.71305e-06 -8.15996e-07  3.98653e-05 
         -50      7.19566 -1.69185e-06 -7.87414e-07  3.98547e-05 
         -50      7.27816  -1.6704e-06 -7.59783e-07  3.98441e-05 
         -50      7.36106 -1.64867e-06 -7.33098e-07  3.98336e-05 
         -50      7.44451  -1.6266e-06 -7.07241e-07   3.9823e-05 
         -50      7.52842 -1.60429e-06 -6.82145e-07  3.98125e-05 
         -50      7.61273 -1.58193e-06 -6.57737e-07  3.98019e-05 
         -50      7.69758 -1.55978e-06 -6.33904e-07  3.97912e-05 
         -50      7.78283 -1.53831e-06 -6.10645e-07  3.97805e-05 
         -50      7.86862 -1.51814e-06 -5.87945e-07  3.97698e-05 
         -50      7.95481 -1.50015e-06 -5.65947e-07   3.9759e-05 
         -50      8.04155 -1.48546e-06 -5.44842e-07  3.97483e-05 
         -50      8.12868 -1.46469e-06 -5.24595e-07  3.97385e-05 
         -50      8.21635 -1.44354e-06 -5.04661e-07  3.97288e-05 
         -50      8.30449 -1.42445e-06 -4.85136e-07  3.97188e-05 
         -50      8.39303 -1.40702e-06 -4.66123e-07  3.97086e-05 
         -50      8.48211 -1.39074e-06 -4.47666e-07  3.96983e-05 
         -50      8.57159 -1.37514e-06 -4.29841e-07   3.9688e-05 
         -50      8.66161 -1.35969e-06 -4.12632e-07  3.96777e-05 
         -50      8.75203 -1.34389e-06 -3.96044e-07  3.96675e-05 
         -50      8.84299 -1.32725e-06 -3.80002e-07  3.96574e-05 
         -50      8.93443 -1.30936e-06 -3.64463e-07  3.96474e-05 
         -50      9.02626 -1.28988e-06 -3.49398e-07  3.96375e-05 
         -50      9.11863 -1.26858e-06   -3.348e-07  3.96277e-05 
         -50      9.21139 -1.24543e-06 -3.20812e-07  3.96178e-05 
         -50      9.30471 -1.22051e-06   -3.077e-07  3.96077e-05 
         -50      9.39841 -1.19953e-06   -2.938e-07  3.95975e-05 
         -50      9.49267 -1.18373e-06 -2.78959e-07  3.95877e-05 
         -50      9.58739 -1.16833e-06 -2.65043e-07  3.95778e-05 
         -50      9.68251 -1.15323e-06 -2.51951e-07  3.95678e-05 
         -50      9.77817  -1.1383e-06 -2.39556e-07  3.95579e-05 
         -50      9.87422  -1.1235e-06  -2.2778e-07   3.9548e-05 
         -50      9.97083 -1.10875e-06 -2.16511e-07  3.95381e-05 
         -50      10.0678 -1.09403e-06 -2.05687e-07  3.95283e-05 
         -50      10.1654 -1.07929e-06 -1.95221e-07  3.95185e-05 
         -50      10.2633 -1.06455e-06 -1.85071e-07  3.95088e-05 
         -50      10.3618 -1.04979e-06 -1.75175e-07  3.94991e-05 
         -50      10.4607 -1.03502e-06 -1.65508e-07  3.94895e-05 
         -50      10.5601 -1.02029e-06 -1.56057e-07  3.94799e-05 
         -50        10.66 -1.00559e-06 -1.46801e-07  3.94704e-05 
         -50      10.7603 -9.90984e-07 -1.37759e-07   3.9461e-05 
         -50      10.8611  -9.7648e-07 -1.28934e-07  3.94515e-05 
         -50      10.9623 -9.62136e-07 -1.20367e-07  3.94422e-05 
         -50      11.0641 -9.47963e-07 -1.12077e-07  3.94328e-05 
         -50      11.1663 -9.33999e-07 -1.04112e-07  3.94235e-05 
         -50       11.269 -9.20277e-07 -9.65226e-08  3.94141e-05 
         -50      11.3721 -9.06785e-07 -8.93381e-08  3.94048e-05 
         -50      11.4757 -8.93544e-07 -8.26084e-08  3.93955e-05 
         -50      11.5798 -8.80515e-07 -7.63515e-08  3.93862e-05 
         -50      11.6844 -8.67684e-07 -7.05912e-08   3.9377e-05 
         -50      11.7894 -8.54973e-07 -6.53113e-08  3.93677e-05 
         -50       11.895 -8.42311e-07 -6.04814e-08  3.93584e-05 
         -50      12.0009 -8.29598e-07 -5.60336e-08  3.93492e-05 
         -50      12.1073 -8.16673e-07  -5.1845e-08  3.93401e-05 
         -50      12.2142 -8.03381e-07 -4.77522e-08   3.9331e-05 
         -50      12.3216 -7.89487e-07 -4.35131e-08   3.9322e-05 
         -50      12.4294 -7.74758e-07 -3.88219e-08  3.93132e-05 
         -50      12.5378 -7.58868e-07 -3.32682e-08  3.93046e-05 
         -50      12.6465 -7.41611e-07 -2.31724e-08  3.92963e-05 
         -50      12.7558 -7.23522e-07 -2.88712e-09  3.92891e-05 
         -50      12.8656  -7.1835e-07 -5.09227e-09  3.92849e-05 
         -50      12.9757 -7.11038e-07 -4.26055e-09  3.92794e-05 
         -50      13.0864 -6.96286e-07 -3.29926e-09  3.92682e-05 
         -50      13.1975 -6.82094e-07 -1.33253e-09  3.92574e-05 
         -50      13.3092  -6.6864e-07  1.43445e-09  3.92471e-05 
         -50      13.4212 -6.56036e-07  4.80338e-09  3.92372e-05 
         -50      13.5338 -6.44258e-07  8.60121e-09  3.92276e-05 
         -50      13.6468 -6.33246e-07  1.26635e-08  3.92184e-05 
         -50      13.7603 -6.22882e-07  1.68427e-08  3.92095e-05 
         -50      13.8743 -6.12997e-07  2.10196e-08  3.92008e-05 
         -50      13.9886 -6.03435e-07  2.50808e-08  3.91923e-05 
         -50      14.1036 -5.94012e-07  2.89453e-08   3.9184e-05 
         -50      14.2189  -5.8459e-07  3.25387e-08  3.91759e-05 
         -50      14.3348 -5.75025e-07  3.58177e-08  3.91679e-05 
         -50       14.451 -5.65242e-07   3.8747e-08  3.91601e-05 
         -50      14.5678 -5.55178e-07   4.1319e-08  3.91523e-05 
         -50      14.6851 -5.44842e-07  4.35359e-08  3.91445e-05 
         -50      14.8028 -5.34292e-07  4.54167e-08  3.91369e-05 
         -50       14.921 -5.23612e-07  4.69984e-08  3.91292e-05 
         -50      15.0396 -5.12962e-07   4.8324e-08  3.91216e-05 
         -50      15.1588 -5.02501e-07  4.94503e-08   3.9114e-05 
         -50      15.2783 -4.92448e-07  5.04358e-08  3.91064e-05 
         -50      15.3984 -4.82991e-07  5.13449e-08  3.90989e-05 
         -50       15.519 -4.74329e-07   5.2238e-08  3.90913e-05 
         -50        15.64 -4.66613e-07   5.3169e-08  3.90837e-05 
         -50      15.7615 -4.59903e-07  5.41829e-08  3.90762e-05 
         -50      15.8834 -4.54168e-07  5.53043e-08  3.90687e-05 
         -50      16.0058 -4.49203e-07  5.65376e-08  3.90612e-05 
         -50      16.1286 -4.44614e-07  5.78528e-08  3.90538e-05 
         -50       16.252 -4.39729e-07  5.91857e-08  3.90465e-05 
         -50      16.3759 -4.33559e-07  6.04219e-08  3.90394e-05 
         -50      16.5002 -4.24723e-07  6.13911e-08  3.90324e-05 
         -50       16.625 -4.11341e-07  6.18591e-08  3.90256e-05 
         -50      16.7501 -3.91862e-07  6.27554e-08  3.90182e-05 
         -50      16.8759 -3.74843e-07   6.4591e-08  3.90103e-05 
         -50       17.002 -3.62107e-07  6.61262e-08  3.90029e-05 
         -50      17.1287  -3.5268e-07  6.74377e-08  3.89958e-05 
         -50      17.2557 -3.45735e-07  6.85824e-08   3.8989e-05 
         -50      17.3834 -3.40529e-07  6.96085e-08  3.89823e-05 
         -50      17.5115  -3.3644e-07  7.05523e-08  3.89758e-05 
         -50      17.6399 -3.32939e-07  7.14434e-08  3.89693e-05 
         -50       17.769 -3.29586e-07  7.23085e-08  3.89629e-05 
         -50      17.8984  -3.2604e-07  7.31686e-08  3.89564e-05 
         -50      18.0284  -3.2203e-07  7.40455e-08  3.89499e-05 
         -50      18.1587 -3.17379e-07  7.49568e-08  3.89433e-05 
         -50      18.2896 -3.11966e-07  7.59218e-08  3.89367e-05 
         -50       18.421 -3.05748e-07  7.69558e-08  3.89301e-05 
         -50      18.5528 -2.98745e-07  7.80711e-08  3.89234e-05 
         -50      18.6851 -2.91017e-07  7.92776e-08  3.89167e-05 
         -50      18.8178 -2.82695e-07  8.05738e-08  3.89101e-05 
         -50      18.9511  -2.7393e-07  8.19513e-08  3.89034e-05 
         -50      19.0847 -2.64937e-07  8.33818e-08  3.88969e-05 
         -50      19.2189 -2.55935e-07  8.48204e-08  3.88905e-05 
         -50      19.3535 -2.47199e-07  8.61908e-08  3.88842e-05 
         -50      19.4886 -2.38994e-07  8.73865e-08  3.88782e-05 
         -50      19.6242 -2.31623e-07  8.82544e-08  3.88724e-05 
         -50      19.7602 -2.25397e-07  8.85901e-08  3.88669e-05 
         -50      19.8968 -2.20615e-07  8.81261e-08  3.88617e-05 
         -50      20.0337 -2.17591e-07  8.65197e-08  3.88569e-05 
         -50      20.1712 -2.16622e-07  8.33353e-08  3.88526e-05 
         -50      20.3091 -2.15002e-07  7.94028e-08  3.88476e-05 
         -50      20.4475 -2.05745e-07   7.9547e-08  3.88392e-05 
         -50      20.5864 -1.98803e-07  8.04893e-08  3.88309e-05 
         -50      20.7257 -1.93989e-07  8.24255e-08  3.88226e-05 
         -50      20.8655 -1.91075e-07  8.56902e-08  3.88147e-05 
         -50      21.0058 -1.89824e-07  9.07661e-08  3.88073e-05 
         -50      21.1465 -1.89964e-07   9.8332e-08  3.88007e-05 
         -50      21.2877 -1.91061e-07  9.77471e-08  3.87961e-05 
         -50      21.4294 -1.85129e-07  8.94651e-08  3.87932e-05 
         -50      21.5716 -1.75078e-07   8.6787e-08  3.87902e-05 
         -50      21.7142 -1.64937e-07  8.71611e-08  3.87873e-05 
         -50      21.8573 -1.55937e-07  8.89539e-08  3.87844e-05 
         -50      22.0008 -1.46264e-07  8.83284e-08  3.87791e-05 
         -50      22.1449 -1.37006e-07  8.31494e-08  3.87689e-05 
         -50      22.2893 -1.31658e-07  8.01804e-08  3.87597e-05 
         -50      22.4344 -1.29257e-07  7.90512e-08  3.87515e-05 
         -50      22.5797 -1.28861e-07  7.92868e-08  3.87442e-05 
         -50      22.7257 -1.29573e-07  8.03631e-08  3.87378e-05 
         -50      22.8721 -1.30595e-07  8.17649e-08   3.8732e-05 
         -50      23.0189 -1.31254e-07  8.30327e-08  3.87268e-05 
         -50      23.1663 -1.31033e-07  8.38058e-08   3.8722e-05 
         -50       23.314 -1.29591e-07  8.38446e-08  3.87176e-05 
         -50      23.4623 -1.26764e-07  8.30525e-08  3.87134e-05 
         -50       23.611 -1.22574e-07  8.14823e-08  3.87092e-05 
         -50      23.7602 -1.17208e-07  7.93249e-08  3.87049e-05 
         -50        23.91 -1.11007e-07  7.68983e-08  3.87006e-05 
         -50        24.06 -1.04433e-07  7.46107e-08   3.8696e-05 
         -50      24.2107 -9.80027e-08  7.29063e-08  3.86911e-05 
         -50      24.3617 -9.22649e-08  7.22128e-08  3.86859e-05 
         -50      24.5133 -8.76895e-08  7.28517e-08  3.86805e-05 
         -50      24.6653 -8.46159e-08  7.49426e-08  3.86748e-05 
         -50      24.8178  -8.3123e-08  7.82912e-08   3.8669e-05 
         -50      24.9708 -8.29299e-08  8.22428e-08  3.86632e-05 
         -50      25.1242 -8.32497e-08  8.55282e-08  3.86578e-05 
         -50      25.2781 -8.26405e-08  8.60932e-08  3.86529e-05 
         -50      25.4324 -7.88352e-08  8.08859e-08  3.86489e-05 
         -50      25.5873  -7.2167e-08  7.85887e-08  3.86425e-05 
         -50      25.7426 -6.30483e-08  7.74402e-08  3.86358e-05 
         -50      25.8984 -5.50242e-08  7.66119e-08  3.86291e-05 
         -50      26.0546 -5.05454e-08  7.59873e-08  3.86225e-05 
         -50      26.2114 -5.05223e-08  7.55241e-08  3.86162e-05 
         -50      26.3686 -5.43735e-08  7.52544e-08  3.86103e-05 
         -50      26.5262 -6.02243e-08  7.52536e-08  3.86049e-05 
         -50      26.6844 -6.53697e-08  7.55853e-08  3.86001e-05 
         -50      26.8429 -6.69093e-08  7.62146e-08  3.85958e-05 
         -50       27.002 -6.26744e-08  7.68956e-08  3.85919e-05 
         -50      27.1615 -5.23864e-08  7.70197e-08  3.85882e-05 
         -50      27.3216 -3.90585e-08   7.5436e-08  3.85844e-05 
         -50      27.4821 -3.07615e-08  7.02306e-08  3.85797e-05 
         -50       27.643  -2.6299e-08  6.91065e-08  3.85741e-05 
         -50      27.8044 -2.15281e-08   7.1084e-08  3.85683e-05 
         -50      27.9663 -2.00751e-08   7.1671e-08  3.85626e-05 
         -50      28.1287 -2.08177e-08  7.12584e-08  3.85569e-05 
         -50      28.2914 -2.28408e-08   7.0173e-08  3.85512e-05 
         -50      28.4548 -2.54193e-08  6.86811e-08  3.85455e-05 
         -50      28.6185 -2.79883e-08  6.70001e-08  3.85399e-05 
         -50      28.7828 -3.01397e-08  6.52948e-08  3.85343e-05 
         -50      28.9475 -3.15894e-08   6.3692e-08  3.85287e-05 
         -50      29.1126 -3.21691e-08  6.22802e-08  3.85232e-05 
         -50      29.2784 -3.18074e-08  6.11125e-08  3.85177e-05 
         -50      29.4444 -3.05128e-08  6.02182e-08  3.85122e-05 
         -50       29.611 -2.83548e-08  5.95999e-08  3.85068e-05 
         -50       29.778  -2.5458e-08  5.92441e-08  3.85013e-05 
         -50      29.9456 -2.19739e-08  5.91211e-08  3.84959e-05 
         -50      30.1137  -1.8083e-08  5.91911e-08  3.84905e-05 
         -50      30.2821 -1.39768e-08  5.94071e-08  3.84851e-05 
         -50      30.4511 -9.83568e-09  5.97188e-08  3.84797e-05 
         -50      30.6204   -5.842e-09  6.00746e-08  3.84744e-05 
         -50      30.7903 -2.14549e-09  6.04264e-08   3.8469e-05 
         -50      30.9606  1.11892e-09  6.07295e-08  3.84636e-05 
         -50      31.1315  3.86024e-09  6.09471e-08  3.84582e-05 
         -50      31.3028  6.01654e-09  6.10502e-08  3.84528e-05 
         -50      31.4745  7.56773e-09  6.10196e-08  3.84474e-05 
         -50      31.6468  8.53805e-09  6.08466e-08   3.8442e-05 
         -50      31.8194  8.98769e-09  6.05338e-08  3.84365e-05 
         -50      31.9926  9.01642e-09  6.00935e-08   3.8431e-05 
         -50      32.1662  8.75553e-09  5.95491e-08  3.84255e-05 
         -50      32.3404  8.36147e-09  5.89311e-08    3.842e-05 
         -50      32.5149  8.00772e-09  5.82786e-08  3.84144e-05 
         -50        32.69  7.87125e-09   5.7633e-08  3.84087e-05 
         -50      32.8655  8.12037e-09  5.70383e-08  3.84031e-05 
         -50      33.0414  8.89572e-09  5.65355e-08  3.83974e-05 
         -50       33.218  1.02939e-08  5.61571e-08  3.83916e-05 
         -50      33.3948  1.23396e-08  5.59243e-08  3.83858e-05 
         -50      33.5723  1.49691e-08  5.58383e-08    3.838e-05 
         -50        33.75  1.79887e-08  5.58751e-08  3.83742e-05 
         -50      33.9284  2.10592e-08  5.59768e-08  3.83683e-05 
         -50      34.1073  2.36439e-08  5.60429e-08  3.83624e-05 
         -50      34.2865  2.49791e-08  5.59208e-08  3.83565e-05 
         -50      34.4663  2.40324e-08  5.53946e-08  3.83506e-05 
         -50      34.6465  1.94539e-08   5.4175e-08  3.83448e-05 
         -50      34.8272  9.51475e-09  5.18822e-08  3.83389e-05 
         -50      35.0083  5.98054e-10  5.04889e-08  3.83343e-05 
         -50        35.19 -6.00139e-09  5.02856e-08   3.8331e-05 
         -50      35.3721 -1.54391e-08  5.04617e-08  3.83283e-05 
         -50      35.5546 -1.80662e-08  5.13251e-08  3.83254e-05 
         -50      35.7377  1.96101e-08  5.04264e-08  3.83189e-05 
         -50      35.9211  4.20401e-08   5.0192e-08  3.83125e-05 
         -50      36.1052  5.25937e-08  5.04074e-08  3.83063e-05 
         -50      36.2895  5.42019e-08  5.09041e-08  3.83002e-05 
         -50      36.4745  4.94591e-08  5.15558e-08  3.82943e-05 
         -50      36.6598  4.06271e-08  5.22711e-08  3.82886e-05 
         -50      36.8457  2.95471e-08  5.29036e-08   3.8283e-05 
         -50      37.0321  1.67638e-08  5.19998e-08  3.82765e-05 
         -50      37.2188   5.3919e-09  5.11679e-08  3.82702e-05 
         -50      37.4062 -3.74403e-09   5.0473e-08  3.82641e-05 
         -50      37.5938 -1.01321e-08  4.99384e-08  3.82581e-05 
         -50      37.7821 -1.35775e-08  4.95507e-08  3.82522e-05 
         -50      37.9707 -1.41126e-08  4.92709e-08  3.82464e-05 
         -50      38.1599 -1.19714e-08  4.90406e-08  3.82406e-05 
         -50      38.3496 -7.53565e-09  4.87902e-08  3.82348e-05 
         -50      38.5396 -1.30185e-09   4.8446e-08   3.8229e-05 
         -50      38.7302  6.18176e-09  4.79346e-08  3.82232e-05 
         -50      38.9211  1.43149e-08  4.71913e-08  3.82173e-05 
         -50      39.1127  2.25244e-08  4.61609e-08  3.82114e-05 
         -50      39.3046  3.02439e-08  4.48071e-08  3.82055e-05 
         -50      39.4971  3.69914e-08  4.31085e-08  3.81996e-05 
         -50      39.6899  4.23436e-08  4.10699e-08  3.81936e-05 
         -50      39.8833  4.59957e-08   3.8713e-08  3.81876e-05 
         -50      40.0772  4.77434e-08  3.60875e-08  3.81816e-05 
         -50      40.2714   4.7511e-08  3.32668e-08  3.81756e-05 
         -50      40.4663  4.53493e-08  3.03384e-08  3.81697e-05 
         -50      40.6615  4.14391e-08  2.74178e-08  3.81638e-05 
         -50      40.8573  3.60721e-08   2.4626e-08  3.81579e-05 
         -50      41.0534   2.9663e-08  2.21025e-08  3.81521e-05 
         -50      41.2501  2.26993e-08  1.99824e-08  3.81463e-05 
         -50      41.4473    1.575e-08  1.84027e-08  3.81407e-05 
         -50      41.6448  9.42075e-09  1.74859e-08   3.8135e-05 
         -50      41.8429  4.30048e-09  1.73289e-08  3.81294e-05 
         -50      42.0414  9.50056e-10   1.7995e-08  3.81239e-05 
         -50      42.2405 -1.80318e-10  1.94995e-08  3.81184e-05 
         -50      42.4399  1.20876e-09  2.17905e-08  3.81129e-05 
         -50      42.6399  5.19204e-09  2.47411e-08  3.81073e-05 
         -50      42.8404  1.15401e-08    2.812e-08  3.81016e-05 
         -50      43.0412  1.96295e-08  3.15749e-08  3.80958e-05 
         -50      43.2426  2.83761e-08  3.46199e-08  3.80898e-05 
         -50      43.4444  3.60861e-08  3.65929e-08  3.80834e-05 
         -50      43.6467  4.03921e-08   3.6647e-08  3.80767e-05 
         -50      43.8494  3.80893e-08  3.37117e-08  3.80694e-05 
         -50      44.0527  2.50166e-08  2.64594e-08  3.80615e-05 
         -50      44.2563 -3.58941e-09  1.38215e-08   3.8053e-05 
         -50      44.4606 -1.77823e-08  1.98056e-08  3.80486e-05 
         -50      44.6653 -2.51328e-08  2.42011e-08  3.80437e-05 
         -50      44.8704 -2.64491e-08  2.73064e-08  3.80384e-05 
         -50       45.076 -2.27178e-08  2.93973e-08  3.80326e-05 
         -50       45.282 -1.50771e-08  3.06962e-08  3.80266e-05 
         -50      45.4886 -4.76559e-09  3.13692e-08  3.80202e-05 
         -50      45.6955  6.86482e-09  3.15002e-08  3.80137e-05 
         -50       45.903  1.84435e-08  3.10777e-08   3.8007e-05 
         -50      46.1111  2.85527e-08  2.99743e-08  3.80004e-05 
         -50      46.3194  3.57959e-08  2.79312e-08  3.79938e-05 
         -50      46.5283  3.88469e-08  2.45309e-08  3.79873e-05 
         -50      46.7376  3.64547e-08  1.91921e-08  3.79811e-05 
         -50      46.9475  2.74977e-08  1.11247e-08  3.79753e-05 
         -50      47.1577  1.10425e-08 -6.53768e-10  3.79699e-05 
         -50      47.3685  6.24307e-09 -5.71419e-09  3.79638e-05 
         -50      47.5798  2.71849e-08  4.85659e-09  3.79559e-05 
         -50      47.7914   4.1779e-08  1.24748e-08  3.79484e-05 
         -50      48.0037  5.13367e-08   1.7581e-08  3.79412e-05 