Variables = x, y, u, v, p

Zone, I=20800, F=POINT
         -50            0            0            0 -0.000245678 
         -50     0.000234 -6.17559e-08 -6.23064e-11 -0.000245678 
         -50     0.000939 -2.47236e-07 -2.45738e-10 -0.000245678 
         -50     0.002113 -5.54184e-07 -5.38456e-10 -0.000245678 
         -50     0.003759 -9.80529e-07 -9.27067e-10 -0.000245678 
         -50     0.005872 -1.52105e-06 -1.39927e-09 -0.000245678 
         -50     0.008457 -2.17206e-06 -1.95388e-09 -0.000245678 
         -50      0.01151  -2.9266e-06  -2.6008e-09 -0.000245678 
         -50     0.015036 -3.77901e-06 -3.36681e-09 -0.000245678 
         -50     0.019031 -4.72045e-06 -4.29117e-09 -0.000245678 
         -50     0.023493 -5.74178e-06 -5.42604e-09 -0.000245678 
         -50     0.028429 -6.83499e-06  -6.8386e-09 -0.000245678 
         -50     0.033831  -7.9879e-06 -8.60919e-09 -0.000245678 
         -50     0.039706 -9.19089e-06 -1.08522e-08 -0.000245678 
         -50     0.046047 -1.04309e-05 -1.37254e-08 -0.000245678 
         -50     0.052863 -1.16976e-05 -1.74603e-08 -0.000245678 
         -50      0.06015 -1.29782e-05 -2.23478e-08 -0.000245678 
         -50       0.0679 -1.42596e-05 -2.86751e-08 -0.000245679 
         -50     0.076126 -1.55326e-05 -3.65563e-08 -0.000245679 
         -50     0.084816 -1.67843e-05 -4.56021e-08 -0.000245679 
         -50     0.093982 -1.80058e-05 -5.76327e-08  -0.00024568 
         -50     0.103611 -1.91855e-05  -7.2239e-08  -0.00024568 
         -50     0.113718 -2.03176e-05 -8.83784e-08  -0.00024568 
         -50     0.124286 -2.13937e-05 -1.05629e-07 -0.000245681 
         -50     0.135333   -2.241e-05 -1.24148e-07 -0.000245681 
         -50      0.14685 -2.33607e-05 -1.44286e-07 -0.000245682 
         -50     0.158827 -2.42417e-05 -1.66242e-07 -0.000245683 
         -50     0.171284 -2.50524e-05  -1.8973e-07 -0.000245684 
         -50     0.184201  -2.5791e-05 -2.13627e-07 -0.000245685 
         -50     0.197599 -2.64595e-05 -2.36298e-07 -0.000245686 
         -50     0.211455 -2.70591e-05 -2.56397e-07 -0.000245687 
         -50     0.225792 -2.75938e-05 -2.75232e-07 -0.000245689 
         -50       0.2406 -2.80663e-05 -3.00804e-07 -0.000245691 
         -50     0.255865 -2.84733e-05 -3.35776e-07 -0.000245693 
         -50     0.271613 -2.88314e-05 -3.47418e-07 -0.000245694 
         -50     0.287818 -2.91458e-05 -3.83201e-07 -0.000245695 
         -50     0.304506 -2.94112e-05 -4.71446e-07 -0.000245697 
         -50      0.32165 -2.96274e-05 -6.22669e-07 -0.000245698 
         -50     0.339278 -2.98009e-05 -8.31802e-07 -0.000245698 
         -50     0.357377 -2.99417e-05  -1.0803e-06 -0.000245698 
         -50      0.37593 -3.00628e-05 -1.34037e-06 -0.000245696 
         -50     0.394968 -3.01787e-05 -1.58073e-06 -0.000245694 
         -50     0.414461 -3.03021e-05 -1.77069e-06 -0.000245692 
         -50      0.43444 -3.04433e-05 -1.88711e-06  -0.00024569 
         -50     0.454872 -3.06068e-05 -1.91806e-06  -0.00024569 
         -50     0.475791 -3.07917e-05 -1.86669e-06 -0.000245692 
         -50     0.497163 -3.09902e-05 -1.75109e-06 -0.000245697 
         -50     0.519021 -3.11905e-05 -1.59959e-06 -0.000245705 
         -50      0.54135 -3.13792e-05 -1.44029e-06 -0.000245717 
         -50     0.564131 -3.15487e-05 -1.28099e-06 -0.000245732 
         -50       0.5874 -3.17093e-05  -1.0771e-06 -0.000245748 
         -50     0.611121 -3.18808e-05 -8.15384e-07 -0.000245762 
         -50      0.63533 -3.18432e-05 -1.65885e-06 -0.000245767 
         -50      0.65999 -3.17792e-05 -2.39456e-06  -0.00024576 
         -50     0.685139 -3.16862e-05 -3.01007e-06 -0.000245745 
         -50     0.710759 -3.15611e-05 -3.49769e-06 -0.000245724 
         -50     0.736828 -3.13994e-05  -3.8564e-06   -0.0002457 
         -50     0.763387 -3.11958e-05 -4.09201e-06 -0.000245675 
         -50     0.790396 -3.09446e-05 -4.21484e-06 -0.000245652 
         -50     0.817896 -3.06394e-05 -4.24053e-06 -0.000245632 
         -50     0.845843 -3.02742e-05 -4.18836e-06 -0.000245615 
         -50     0.874283 -2.98419e-05 -4.08036e-06 -0.000245604 
         -50      0.90317 -2.93375e-05  -3.9404e-06 -0.000245597 
         -50     0.932551 -2.87551e-05 -3.79226e-06 -0.000245595 
         -50     0.962401 -2.80909e-05 -3.65896e-06 -0.000245597 
         -50     0.992697  -2.7343e-05 -3.56091e-06 -0.000245602 
         -50      1.02349 -2.65093e-05 -3.51435e-06 -0.000245607 
         -50      1.05472 -2.55925e-05  -3.5305e-06 -0.000245613 
         -50      1.08645 -2.45944e-05 -3.61419e-06 -0.000245615 
         -50      1.11863 -2.35225e-05 -3.76292e-06 -0.000245613 
         -50       1.1513 -2.23835e-05 -3.96698e-06 -0.000245603 
         -50      1.18444  -2.1189e-05 -4.20889e-06 -0.000245585 
         -50      1.21802 -1.99527e-05 -4.46443e-06 -0.000245556 
         -50      1.25211 -1.86873e-05 -4.70513e-06 -0.000245516 
         -50      1.28663 -1.74101e-05 -4.89968e-06 -0.000245465 
         -50      1.32165 -1.61344e-05  -5.0195e-06 -0.000245404 
         -50      1.35712 -1.48761e-05 -5.04324e-06 -0.000245338 
         -50      1.39308 -1.36435e-05 -4.96509e-06 -0.000245271 
         -50      1.42951 -1.24424e-05 -4.80414e-06 -0.000245213 
         -50      1.46638 -1.12699e-05 -4.61701e-06 -0.000245174 
         -50      1.50375 -1.01081e-05 -4.51231e-06  -0.00024517 
         -50      1.54156 -8.98606e-06 -4.59194e-06 -0.000245121 
         -50      1.57987 -7.86169e-06   -4.649e-06 -0.000245064 
         -50      1.61863 -6.74038e-06 -4.68005e-06 -0.000245006 
         -50      1.65788 -5.62734e-06 -4.68889e-06 -0.000244946 
         -50      1.69757 -4.53101e-06   -4.679e-06 -0.000244883 
         -50      1.73776  -3.4558e-06 -4.65363e-06 -0.000244819 
         -50      1.77842 -2.40838e-06 -4.61577e-06 -0.000244753 
         -50      1.81952 -1.39489e-06  -4.5682e-06 -0.000244685 
         -50      1.86113 -4.18463e-07 -4.51326e-06 -0.000244616 
         -50      1.90316  5.15014e-07  -4.4532e-06 -0.000244544 
         -50      1.94571  1.40329e-06  -4.3898e-06 -0.000244471 
         -50      1.98869  2.24174e-06 -4.32474e-06 -0.000244396 
         -50      2.03217  3.02906e-06 -4.25922e-06  -0.00024432 
         -50      2.07612  3.76248e-06 -4.19432e-06 -0.000244242 
         -50      2.12051  4.43999e-06 -4.13088e-06 -0.000244162 
         -50       2.1654   5.0617e-06 -4.06932e-06 -0.000244082 
         -50      2.21073  5.62624e-06 -4.01004e-06    -0.000244 
         -50      2.25656  6.13468e-06 -3.95306e-06 -0.000243916 
         -50      2.30283   6.5869e-06 -3.89836e-06 -0.000243832 
         -50       2.3496  6.98477e-06 -3.84564e-06 -0.000243747 
         -50      2.39685  7.32959e-06 -3.79454e-06 -0.000243661 
         -50      2.44452  7.62323e-06 -3.74465e-06 -0.000243574 
         -50      2.49271  7.86864e-06 -3.69533e-06 -0.000243486 
         -50      2.54132  8.06828e-06 -3.64609e-06 -0.000243398 
         -50      2.59044  8.22561e-06 -3.59624e-06  -0.00024331 
         -50         2.64  8.34378e-06 -3.54531e-06 -0.000243221 
         -50      2.69006  8.42657e-06  -3.4927e-06 -0.000243132 
         -50      2.74056  8.47756e-06 -3.43807e-06 -0.000243043 
         -50      2.79156  8.50064e-06   -3.381e-06 -0.000242954 
         -50      2.84304  8.49954e-06 -3.32135e-06 -0.000242866 
         -50      2.89494  8.47801e-06 -3.25912e-06 -0.000242777 
         -50      2.94735  8.43959e-06 -3.19432e-06 -0.000242689 
         -50       3.0002  8.38771e-06 -3.12733e-06 -0.000242602 
         -50      3.05355  8.32537e-06 -3.05846e-06 -0.000242514 
         -50      3.10733  8.25537e-06 -2.98838e-06 -0.000242428 
         -50      3.16163   8.1799e-06 -2.91764e-06 -0.000242342 
         -50      3.21639  8.10083e-06 -2.84702e-06 -0.000242257 
         -50      3.27158  8.01946e-06 -2.77731e-06 -0.000242173 
         -50      3.32729  7.93633e-06 -2.70906e-06 -0.000242089 
         -50      3.38342  7.85155e-06 -2.64284e-06 -0.000242006 
         -50      3.44007  7.76431e-06 -2.57874e-06 -0.000241923 
         -50      3.49714  7.67334e-06 -2.51657e-06 -0.000241841 
         -50      3.55472  7.57637e-06 -2.45533e-06 -0.000241759 
         -50      3.61273  7.47072e-06 -2.39339e-06 -0.000241678 
         -50      3.67125   7.3527e-06 -2.32782e-06 -0.000241596 
         -50      3.73025  7.21819e-06 -2.25445e-06 -0.000241514 
         -50      3.78967  7.09745e-06 -2.18135e-06 -0.000241434 
         -50      3.84961  6.98532e-06 -2.11612e-06 -0.000241355 
         -50      3.90996  6.86731e-06 -2.05231e-06 -0.000241276 
         -50      3.97084  6.75874e-06 -1.99298e-06 -0.000241198 
         -50      4.03214  6.64939e-06 -1.93466e-06 -0.000241122 
         -50      4.09395  6.53765e-06  -1.8766e-06 -0.000241047 
         -50      4.15624  6.42428e-06 -1.81893e-06 -0.000240972 
         -50      4.21895  6.30994e-06 -1.76182e-06 -0.000240898 
         -50      4.28217  6.19495e-06 -1.70533e-06 -0.000240824 
         -50      4.34582  6.07994e-06 -1.64969e-06 -0.000240751 
         -50      4.40998   5.9651e-06 -1.59496e-06 -0.000240679 
         -50      4.47457  5.85091e-06 -1.54137e-06 -0.000240607 
         -50      4.53968  5.73746e-06 -1.48894e-06 -0.000240536 
         -50      4.60525  5.62502e-06 -1.43781e-06 -0.000240465 
         -50      4.67125  5.51385e-06 -1.38804e-06 -0.000240396 
         -50      4.73777  5.40388e-06 -1.33959e-06 -0.000240327 
         -50       4.8047  5.29535e-06 -1.29249e-06 -0.000240259 
         -50      4.87216  5.18814e-06 -1.24662e-06 -0.000240192 
         -50      4.94003  5.08244e-06 -1.20195e-06 -0.000240125 
         -50      5.00843  4.97807e-06 -1.15831e-06  -0.00024006 
         -50      5.07724  4.87518e-06 -1.11567e-06 -0.000239996 
         -50      5.14658  4.77357e-06 -1.07388e-06 -0.000239932 
         -50      5.21639  4.67328e-06 -1.03292e-06  -0.00023987 
         -50      5.28661  4.57437e-06 -9.92885e-07 -0.000239808 
         -50      5.35736  4.47663e-06 -9.53862e-07 -0.000239747 
         -50      5.42852  4.38019e-06 -9.16249e-07 -0.000239687 
         -50      5.50021  4.28486e-06 -8.80545e-07 -0.000239628 
         -50      5.57231  4.19078e-06 -8.47657e-07 -0.000239569 
         -50      5.64493   4.0978e-06 -8.18748e-07  -0.00023951 
         -50      5.71803   3.9979e-06 -7.79422e-07 -0.000239452 
         -50      5.79154  3.90283e-06 -7.45252e-07 -0.000239394 
         -50      5.86558  3.81148e-06 -7.14249e-07 -0.000239338 
         -50      5.94003  3.72306e-06 -6.85131e-07 -0.000239282 
         -50      6.01501  3.63659e-06 -6.56995e-07 -0.000239227 
         -50       6.0904   3.5516e-06 -6.29405e-07 -0.000239173 
         -50      6.16632  3.46753e-06 -6.02111e-07 -0.000239119 
         -50      6.24271  3.38431e-06 -5.75123e-07 -0.000239067 
         -50       6.3195  3.30211e-06 -5.48586e-07 -0.000239015 
         -50      6.39683  3.22111e-06 -5.22664e-07 -0.000238965 
         -50      6.47457   3.1419e-06 -4.97678e-07 -0.000238915 
         -50      6.55284  3.06485e-06 -4.73938e-07 -0.000238867 
         -50      6.63152  2.99043e-06  -4.5195e-07 -0.000238819 
         -50      6.71073  2.91856e-06 -4.32331e-07 -0.000238771 
         -50      6.79034  2.84525e-06 -4.09771e-07 -0.000238724 
         -50      6.87049  2.77099e-06 -3.87254e-07 -0.000238677 
         -50      6.95111  2.69767e-06 -3.66854e-07 -0.000238631 
         -50      7.03214  2.62573e-06 -3.48078e-07 -0.000238585 
         -50       7.1137  2.55534e-06 -3.30468e-07  -0.00023854 
         -50      7.19566  2.48682e-06 -3.13696e-07 -0.000238496 
         -50      7.27816  2.42019e-06 -2.97454e-07 -0.000238453 
         -50      7.36106  2.35557e-06 -2.81552e-07  -0.00023841 
         -50      7.44451  2.29283e-06 -2.65827e-07 -0.000238368 
         -50      7.52842  2.23187e-06 -2.50226e-07 -0.000238327 
         -50      7.61273  2.17249e-06 -2.34786e-07 -0.000238286 
         -50      7.69758  2.11427e-06 -2.19601e-07 -0.000238246 
         -50      7.78283  2.05681e-06 -2.04925e-07 -0.000238207 
         -50      7.86862   1.9994e-06 -1.91098e-07 -0.000238168 
         -50      7.95481  1.94133e-06 -1.78658e-07 -0.000238129 
         -50      8.04155  1.88151e-06 -1.68288e-07 -0.000238091 
         -50      8.12868  1.82841e-06 -1.56189e-07 -0.000238054 
         -50      8.21635  1.77677e-06 -1.44259e-07 -0.000238017 
         -50      8.30449  1.72467e-06 -1.33389e-07 -0.000237981 
         -50      8.39303   1.6727e-06 -1.23312e-07 -0.000237945 
         -50      8.48211  1.62137e-06 -1.13732e-07  -0.00023791 
         -50      8.57159  1.57135e-06 -1.04395e-07 -0.000237875 
         -50      8.66161   1.5231e-06 -9.50543e-08 -0.000237841 
         -50      8.75203  1.47716e-06 -8.55602e-08 -0.000237807 
         -50      8.84299  1.43375e-06 -7.58403e-08 -0.000237774 
         -50      8.93443  1.39296e-06 -6.59995e-08 -0.000237741 
         -50      9.02626  1.35456e-06 -5.63535e-08 -0.000237709 
         -50      9.11863  1.31779e-06  -4.7472e-08 -0.000237677 
         -50      9.21139  1.28142e-06 -4.03066e-08 -0.000237646 
         -50      9.30471   1.2434e-06 -3.62255e-08 -0.000237616 
         -50      9.39841   1.2054e-06 -3.16856e-08 -0.000237586 
         -50      9.49267  1.16934e-06 -2.35147e-08 -0.000237556 
         -50      9.58739  1.13273e-06 -1.57025e-08 -0.000237527 
         -50      9.68251  1.09614e-06 -8.38453e-09 -0.000237498 
         -50      9.77817  1.05995e-06 -1.60753e-09 -0.000237469 
         -50      9.87422  1.02455e-06   4.6172e-09 -0.000237441 
         -50      9.97083  9.90127e-07   1.0344e-08 -0.000237413 
         -50      10.0678  9.56891e-07  1.56409e-08 -0.000237385 
         -50      10.1654   9.2487e-07  2.06143e-08 -0.000237358 
         -50      10.2633  8.94134e-07  2.53642e-08 -0.000237331 
         -50      10.3618  8.64596e-07  3.00059e-08 -0.000237305 
         -50      10.4607    8.362e-07  3.46339e-08 -0.000237279 
         -50      10.5601  8.08853e-07  3.93256e-08 -0.000237253 
         -50        10.66  7.82369e-07  4.41454e-08 -0.000237228 
         -50      10.7603   7.5664e-07  4.91135e-08 -0.000237202 
         -50      10.8611  7.31465e-07  5.42335e-08 -0.000237177 
         -50      10.9623  7.06736e-07  5.94584e-08 -0.000237153 
         -50      11.0641  6.82277e-07  6.47244e-08 -0.000237129 
         -50      11.1663  6.57998e-07  6.99245e-08 -0.000237105 
         -50       11.269  6.33842e-07  7.49261e-08 -0.000237081 
         -50      11.3721  6.09738e-07  7.95912e-08 -0.000237058 
         -50      11.4757  5.85742e-07  8.37599e-08 -0.000237035 
         -50      11.5798  5.61893e-07  8.72937e-08 -0.000237012 
         -50      11.6844  5.38369e-07  9.00672e-08 -0.000236989 
         -50      11.7894  5.15346e-07  9.20112e-08 -0.000236967 
         -50       11.895   4.9313e-07  9.31213e-08 -0.000236945 
         -50      12.0009  4.72109e-07   9.3497e-08 -0.000236923 
         -50      12.1073  4.52699e-07  9.33738e-08 -0.000236901 
         -50      12.2142   4.3547e-07  9.31609e-08 -0.000236879 
         -50      12.3216  4.21016e-07  9.34864e-08 -0.000236858 
         -50      12.4294  4.10069e-07   9.5246e-08 -0.000236836 
         -50      12.5378    4.034e-07  9.96641e-08 -0.000236814 
         -50      12.6465  3.95089e-07   1.0564e-07 -0.000236793 
         -50      12.7558   3.7269e-07  1.09059e-07 -0.000236773 
         -50      12.8656  3.58257e-07  1.13069e-07 -0.000236747 
         -50      12.9757  3.43769e-07   1.1516e-07 -0.000236723 
         -50      13.0864  3.30531e-07    1.136e-07 -0.000236704 
         -50      13.1975  3.18842e-07  1.12788e-07 -0.000236686 
         -50      13.3092  3.07674e-07  1.12629e-07 -0.000236668 
         -50      13.4212  2.96356e-07  1.13039e-07  -0.00023665 
         -50      13.5338  2.84451e-07  1.13939e-07 -0.000236631 
         -50      13.6468  2.71776e-07  1.15253e-07 -0.000236613 
         -50      13.7603  2.58333e-07  1.16906e-07 -0.000236595 
         -50      13.8743  2.44233e-07  1.18827e-07 -0.000236576 
         -50      13.9886   2.2973e-07  1.20935e-07 -0.000236557 
         -50      14.1036  2.15096e-07  1.23156e-07 -0.000236538 
         -50      14.2189  2.00679e-07  1.25406e-07 -0.000236519 
         -50      14.3348  1.86779e-07  1.27605e-07   -0.0002365 
         -50       14.451  1.73709e-07  1.29664e-07 -0.000236481 
         -50      14.5678  1.61689e-07  1.31501e-07 -0.000236461 
         -50      14.6851  1.50897e-07   1.3303e-07 -0.000236442 
         -50      14.8028  1.41422e-07  1.34172e-07 -0.000236422 
         -50       14.921  1.33238e-07  1.34856e-07 -0.000236403 
         -50      15.0396  1.26253e-07  1.35022e-07 -0.000236384 
         -50      15.1588  1.20256e-07  1.34629e-07 -0.000236365 
         -50      15.2783  1.14981e-07  1.33659e-07 -0.000236346 
         -50      15.3984  1.10082e-07  1.32123e-07 -0.000236327 
         -50       15.519  1.05195e-07  1.30075e-07 -0.000236309 
         -50        15.64   9.9959e-08  1.27616e-07  -0.00023629 
         -50      15.7615  9.40506e-08  1.24902e-07 -0.000236272 
         -50      15.8834  8.72725e-08  1.22169e-07 -0.000236254 
         -50      16.0058  7.95805e-08  1.19726e-07 -0.000236236 
         -50      16.1286  7.12066e-08  1.17993e-07 -0.000236218 
         -50       16.252  6.27015e-08  1.17494e-07   -0.0002362 
         -50      16.3759  5.50855e-08  1.18896e-07 -0.000236182 
         -50      16.5002  4.99428e-08  1.23008e-07 -0.000236163 
         -50       16.625  4.95459e-08  1.30826e-07 -0.000236144 
         -50      16.7501  4.80889e-08  1.32315e-07 -0.000236125 
         -50      16.8759   4.2033e-08  1.24671e-07 -0.000236106 
         -50       17.002  3.91877e-08   1.2009e-07 -0.000236087 
         -50      17.1287  3.80947e-08  1.17814e-07 -0.000236069 
         -50      17.2557  3.76515e-08  1.17203e-07  -0.00023605 
         -50      17.3834  3.70592e-08  1.17711e-07 -0.000236032 
         -50      17.5115  3.57877e-08  1.18891e-07 -0.000236014 
         -50      17.6399  3.35382e-08  1.20379e-07 -0.000235995 
         -50       17.769  3.01972e-08  1.21901e-07 -0.000235977 
         -50      17.8984   2.5815e-08  1.23249e-07 -0.000235958 
         -50      18.0284  2.05495e-08   1.2429e-07  -0.00023594 
         -50      18.1587  1.46601e-08  1.24945e-07 -0.000235921 
         -50      18.2896  8.44392e-09  1.25193e-07 -0.000235903 
         -50       18.421   2.2383e-09  1.25052e-07 -0.000235884 
         -50      18.5528 -3.61993e-09  1.24578e-07 -0.000235865 
         -50      18.6851 -8.83236e-09  1.23854e-07 -0.000235846 
         -50      18.8178 -1.31283e-08  1.22978e-07 -0.000235827 
         -50      18.9511 -1.63148e-08  1.22059e-07 -0.000235808 
         -50      19.0847 -1.82637e-08  1.21204e-07 -0.000235789 
         -50      19.2189 -1.89416e-08  1.20505e-07  -0.00023577 
         -50      19.3535 -1.84031e-08  1.20038e-07 -0.000235751 
         -50      19.4886 -1.67967e-08  1.19841e-07 -0.000235731 
         -50      19.6242 -1.43617e-08  1.19912e-07 -0.000235712 
         -50      19.7602 -1.14204e-08  1.20193e-07 -0.000235693 
         -50      19.8968 -8.35378e-09  1.20562e-07 -0.000235674 
         -50      20.0337  -5.5971e-09  1.20816e-07 -0.000235655 
         -50      20.1712  -3.5945e-09  1.20667e-07 -0.000235636 
         -50      20.3091 -3.24507e-09  1.19915e-07 -0.000235617 
         -50      20.4475 -6.51092e-09  1.19577e-07 -0.000235596 
         -50      20.5864 -1.20768e-08  1.19738e-07 -0.000235575 
         -50      20.7257  -1.9731e-08  1.20669e-07 -0.000235554 
         -50      20.8655 -2.92738e-08  1.22612e-07 -0.000235533 
         -50      21.0058 -4.04839e-08  1.25735e-07 -0.000235512 
         -50      21.1465 -5.31936e-08  1.30115e-07  -0.00023549 
         -50      21.2877 -4.51403e-08  1.28804e-07 -0.000235469 
         -50      21.4294 -2.26363e-08  1.24712e-07 -0.000235448 
         -50      21.5716 -1.17325e-08  1.25117e-07 -0.000235427 
         -50      21.7142 -6.29501e-09  1.26413e-07 -0.000235405 
         -50      21.8573 -3.17195e-09  1.25804e-07 -0.000235382 
         -50      22.0008 -6.59595e-09  1.21579e-07 -0.000235361 
         -50      22.1449   -1.959e-08  1.17647e-07 -0.000235343 
         -50      22.2893 -2.93664e-08  1.15329e-07 -0.000235324 
         -50      22.4344 -3.59191e-08  1.14363e-07 -0.000235304 
         -50      22.5797 -3.94838e-08   1.1438e-07 -0.000235284 
         -50      22.7257 -4.05054e-08  1.14949e-07 -0.000235263 
         -50      22.8721 -3.95435e-08  1.15641e-07 -0.000235241 
         -50      23.0189 -3.72248e-08  1.16073e-07 -0.000235219 
         -50      23.1663 -3.41744e-08  1.15948e-07 -0.000235197 
         -50       23.314 -3.09821e-08  1.15079e-07 -0.000235174 
         -50      23.4623 -2.81445e-08  1.13408e-07 -0.000235151 
         -50       23.611 -2.60519e-08  1.11018e-07 -0.000235128 
         -50      23.7602 -2.49502e-08  1.08114e-07 -0.000235104 
         -50        23.91 -2.49418e-08  1.05018e-07 -0.000235081 
         -50        24.06 -2.59757e-08  1.02134e-07 -0.000235058 
         -50      24.2107 -2.78648e-08  9.98891e-08 -0.000235036 
         -50      24.3617 -3.03017e-08  9.86886e-08 -0.000235013 
         -50      24.5133 -3.29063e-08  9.88241e-08 -0.000234991 
         -50      24.6653 -3.52617e-08  1.00384e-07 -0.000234968 
         -50      24.8178 -3.69946e-08  1.03141e-07 -0.000234946 
         -50      24.9708 -3.78429e-08   1.0641e-07 -0.000234923 
         -50      25.1242 -3.77619e-08  1.08901e-07   -0.0002349 
         -50      25.2781 -3.70361e-08  1.08546e-07 -0.000234875 
         -50      25.4324 -3.64142e-08    1.023e-07 -0.000234849 
         -50      25.5873 -2.00487e-08  1.09297e-07 -0.000234827 
         -50      25.7426 -1.01149e-08  1.13954e-07 -0.000234805 
         -50      25.8984 -8.14948e-09  1.15159e-07 -0.000234782 
         -50      26.0546 -1.30258e-08  1.13687e-07 -0.000234759 
         -50      26.2114  -2.2815e-08  1.10392e-07 -0.000234734 
         -50      26.3686 -3.49416e-08  1.06165e-07  -0.00023471 
         -50      26.5262 -4.64479e-08   1.0188e-07 -0.000234685 
         -50      26.6844 -5.43875e-08  9.83109e-08  -0.00023466 
         -50      26.8429 -5.62271e-08  9.60556e-08 -0.000234635 
         -50       27.002 -5.04547e-08  9.54083e-08 -0.000234609 
         -50      27.1615 -3.72529e-08  9.62384e-08 -0.000234583 
         -50      27.3216  -1.9262e-08  9.78319e-08 -0.000234557 
         -50      27.4821 -2.56857e-09  9.87106e-08 -0.000234531 
         -50       27.643 -9.94582e-10  9.79827e-08 -0.000234505 
         -50      27.8044 -4.89747e-09  9.70687e-08 -0.000234481 
         -50      27.9663 -8.85359e-09  9.59836e-08 -0.000234456 
         -50      28.1287 -1.25525e-08  9.48378e-08  -0.00023443 
         -50      28.2914 -1.57628e-08  9.37194e-08 -0.000234405 
         -50      28.4548 -1.83435e-08  9.26904e-08 -0.000234379 
         -50      28.6185  -2.0213e-08  9.17961e-08 -0.000234353 
         -50      28.7828 -2.13547e-08  9.10613e-08 -0.000234327 
         -50      28.9475 -2.17948e-08  9.04986e-08 -0.000234301 
         -50      29.1126 -2.15993e-08  9.01076e-08 -0.000234274 
         -50      29.2784  -2.0862e-08  8.98771e-08 -0.000234248 
         -50      29.4444 -1.96974e-08  8.97895e-08 -0.000234221 
         -50       29.611 -1.82285e-08  8.98213e-08 -0.000234195 
         -50       29.778 -1.65856e-08  8.99452e-08 -0.000234168 
         -50      29.9456 -1.48912e-08   9.0133e-08 -0.000234141 
         -50      30.1137  -1.3262e-08  9.03559e-08 -0.000234114 
         -50      30.2821 -1.17996e-08  9.05865e-08 -0.000234087 
         -50      30.4511 -1.05825e-08  9.08007e-08  -0.00023406 
         -50      30.6204 -9.67028e-09  9.09777e-08 -0.000234033 
         -50      30.7903 -9.09321e-09  9.11018e-08 -0.000234005 
         -50      30.9606 -8.85648e-09  9.11622e-08 -0.000233978 
         -50      31.1315 -8.93584e-09  9.11538e-08 -0.000233951 
         -50      31.3028 -9.28022e-09  9.10774e-08 -0.000233923 
         -50      31.4745 -9.81207e-09   9.0939e-08 -0.000233896 
         -50      31.6468 -1.04327e-08  9.07496e-08 -0.000233868 
         -50      31.8194 -1.10235e-08  9.05247e-08  -0.00023384 
         -50      31.9926 -1.14559e-08  9.02821e-08 -0.000233812 
         -50      32.1662  -1.1595e-08  9.00418e-08 -0.000233784 
         -50      32.3404  -1.1311e-08  8.98224e-08 -0.000233756 
         -50      32.5149 -1.04899e-08  8.96408e-08 -0.000233728 
         -50        32.69 -9.04309e-09  8.95075e-08 -0.000233699 
         -50      32.8655 -6.92596e-09  8.94249e-08 -0.000233671 
         -50      33.0414 -4.15404e-09  8.93831e-08 -0.000233642 
         -50       33.218 -8.12501e-10  8.93558e-08 -0.000233613 
         -50      33.3948  2.90715e-09  8.92961e-08 -0.000233584 
         -50      33.5723  6.70502e-09  8.91308e-08 -0.000233555 
         -50        33.75  1.01255e-08  8.87558e-08 -0.000233525 
         -50      33.9284  1.25525e-08  8.80284e-08 -0.000233496 
         -50      34.1073  1.31598e-08  8.67617e-08 -0.000233466 
         -50      34.2865  1.08938e-08   8.4719e-08 -0.000233436 
         -50      34.4663  4.42614e-09  8.15985e-08 -0.000233406 
         -50      34.6465 -7.86215e-09  7.70386e-08 -0.000233376 
         -50      34.8272 -2.79684e-08  7.05868e-08 -0.000233345 
         -50      35.0083 -3.68021e-08  7.05395e-08 -0.000233315 
         -50        35.19 -3.27457e-08  7.52474e-08 -0.000233283 
         -50      35.3721 -2.82139e-08  7.91085e-08  -0.00023325 
         -50      35.5546 -1.55589e-08  8.30112e-08 -0.000233217 
         -50      35.7377  1.97574e-08  8.66961e-08 -0.000233188 
         -50      35.9211  3.89726e-08  8.96258e-08 -0.000233158 
         -50      36.1052  4.58119e-08   9.1815e-08 -0.000233129 
         -50      36.2895  4.35151e-08  9.32785e-08 -0.000233099 
         -50      36.4745  3.49196e-08  9.40428e-08  -0.00023307 
         -50      36.6598  2.24915e-08  9.41337e-08  -0.00023304 
         -50      36.8457  8.31937e-09  9.35262e-08  -0.00023301 
         -50      37.0321 -5.55548e-09  9.17693e-08 -0.000232979 
         -50      37.2188 -1.79148e-08  9.01548e-08 -0.000232948 
         -50      37.4062 -2.78641e-08  8.87213e-08 -0.000232916 
         -50      37.5938 -3.48361e-08  8.74884e-08 -0.000232884 
         -50      37.7821 -3.85985e-08  8.64525e-08 -0.000232852 
         -50      37.9707   -3.916e-08   8.5598e-08  -0.00023282 
         -50      38.1599 -3.67446e-08  8.48952e-08 -0.000232787 
         -50      38.3496 -3.17367e-08  8.43083e-08 -0.000232755 
         -50      38.5396 -2.46468e-08  8.37965e-08 -0.000232722 
         -50      38.7302 -1.60451e-08  8.33166e-08  -0.00023269 
         -50      38.9211  -6.5652e-09  8.28281e-08 -0.000232657 
         -50      39.1127  3.18287e-09  8.22926e-08 -0.000232625 
         -50      39.3046   1.2586e-08  8.16793e-08 -0.000232592 
         -50      39.4971  2.11156e-08  8.09631e-08  -0.00023256 
         -50      39.6899  2.82933e-08  8.01303e-08 -0.000232527 
         -50      39.8833  3.37634e-08  7.91748e-08 -0.000232495 
         -50      40.0772  3.72653e-08   7.8103e-08 -0.000232462 
         -50      40.2714  3.86686e-08   7.6933e-08 -0.000232429 
         -50      40.4663  3.79748e-08  7.56906e-08 -0.000232397 
         -50      40.6615  3.53146e-08  7.44155e-08 -0.000232364 
         -50      40.8573  3.09386e-08  7.31522e-08 -0.000232332 
         -50      41.0534   2.5223e-08  7.19563e-08 -0.000232299 
         -50      41.2501  1.86268e-08  7.08844e-08 -0.000232266 
         -50      41.4473  1.16978e-08  6.99978e-08 -0.000232233 
         -50      41.6448  5.03146e-09  6.93558e-08   -0.0002322 
         -50      41.8429 -7.83005e-10  6.90108e-08 -0.000232167 
         -50      42.0414 -5.17012e-09  6.90062e-08 -0.000232133 
         -50      42.2405 -7.65391e-09  6.93691e-08   -0.0002321 
         -50      42.4399 -7.89031e-09  7.01044e-08 -0.000232066 
         -50      42.6399 -5.74824e-09  7.11898e-08 -0.000232033 
         -50      42.8404 -1.37945e-09  7.25651e-08 -0.000231999 
         -50      43.0412  4.68949e-09  7.41243e-08 -0.000231965 
         -50      43.2426  1.14862e-08  7.57115e-08 -0.000231931 
         -50      43.4444  1.74557e-08  7.71016e-08 -0.000231897 
         -50      43.6467  2.03859e-08  7.79989e-08 -0.000231864 
         -50      43.8494  1.72546e-08  7.80174e-08  -0.00023183 
         -50      44.0527  4.10468e-09  7.66721e-08 -0.000231797 
         -50      44.2563 -2.32835e-08  7.35007e-08 -0.000231763 
         -50      44.4606 -2.42127e-08  7.46854e-08 -0.000231728 
         -50      44.6653 -2.24519e-08  7.53975e-08 -0.000231692 
         -50      44.8704 -1.83654e-08  7.58398e-08 -0.000231657 
         -50       45.076 -1.24728e-08  7.61997e-08 -0.000231623 
         -50       45.282 -5.42779e-09  7.66245e-08 -0.000231588 
         -50      45.4886  2.06717e-09  7.72024e-08 -0.000231554 
         -50      45.6955  9.27015e-09  7.79354e-08  -0.00023152 
         -50       45.903  1.54998e-08  7.87188e-08 -0.000231486 
         -50      46.1111   2.0151e-08  7.93117e-08 -0.000231452 
         -50      46.3194  2.27774e-08  7.93136e-08 -0.000231418 
         -50      46.5283  2.31533e-08  7.81364e-08 -0.000231383 
         -50      46.7376  2.13279e-08  7.49789e-08 -0.000231349 
         -50      46.9475   1.7694e-08  6.87869e-08 -0.000231314 
         -50      47.1577  1.30678e-08   5.8248e-08 -0.000231278 
         -50      47.3685  1.62986e-08  5.29564e-08 -0.000231243 
         -50      47.5798  2.89696e-08  6.21602e-08 -0.000231209 
         -50      47.7914  3.73116e-08  6.84508e-08 -0.000231175 
         -50      48.0037  4.24482e-08  7.22988e-08  -0.00023114 