Variables = x, y, u, v, p

Zone, I=20800, F=POINT
         -50            0            0            0 -0.000199327 
         -50     0.000234  7.82577e-09  1.10925e-11 -0.000199327 
         -50     0.000939  3.05389e-08  7.39102e-11 -0.000199327 
         -50     0.002113  6.55077e-08  2.76947e-10 -0.000199327 
         -50     0.003759  1.08624e-07  7.70119e-10 -0.000199327 
         -50     0.005872  1.54081e-07  1.76251e-09 -0.000199327 
         -50     0.008457  1.95006e-07  3.52894e-09 -0.000199326 
         -50      0.01151  2.23274e-07  6.39957e-09 -0.000199326 
         -50     0.015036  2.30064e-07  1.07687e-08 -0.000199326 
         -50     0.019031  2.06008e-07  1.70707e-08 -0.000199325 
         -50     0.023493  1.41708e-07  2.57794e-08 -0.000199325 
         -50     0.028429  2.78399e-08  3.74194e-08 -0.000199325 
         -50     0.033831  -1.4398e-07  5.25051e-08 -0.000199324 
         -50     0.039706 -3.81499e-07  7.16063e-08 -0.000199324 
         -50     0.046047 -6.90555e-07  9.52645e-08 -0.000199323 
         -50     0.052863 -1.07599e-06  1.24088e-07 -0.000199322 
         -50      0.06015 -1.54001e-06   1.5863e-07 -0.000199322 
         -50       0.0679 -2.08219e-06  1.99351e-07 -0.000199321 
         -50     0.076126 -2.70124e-06  2.46634e-07 -0.000199321 
         -50     0.084816 -3.39157e-06  3.00386e-07  -0.00019932 
         -50     0.093982 -4.14717e-06  3.61768e-07 -0.000199319 
         -50     0.103611  -4.9586e-06  4.30211e-07 -0.000199319 
         -50     0.113718 -5.81493e-06  5.05051e-07 -0.000199318 
         -50     0.124286 -6.70122e-06  5.85651e-07 -0.000199317 
         -50     0.135333 -7.60452e-06   6.7181e-07 -0.000199317 
         -50      0.14685 -8.50899e-06  7.63143e-07 -0.000199316 
         -50     0.158827 -9.39854e-06  8.59098e-07 -0.000199315 
         -50     0.171284 -1.02593e-05  9.59055e-07 -0.000199315 
         -50     0.184201 -1.10748e-05  1.06176e-06 -0.000199314 
         -50     0.197599 -1.18319e-05  1.16626e-06 -0.000199313 
         -50     0.211455 -1.25163e-05   1.2721e-06 -0.000199313 
         -50     0.225792 -1.31178e-05  1.38168e-06 -0.000199312 
         -50       0.2406 -1.36281e-05  1.50263e-06 -0.000199311 
         -50     0.255865 -1.40491e-05  1.64682e-06 -0.000199311 
         -50     0.271613 -1.43653e-05   1.7861e-06 -0.000199311 
         -50     0.287818 -1.45698e-05  1.95195e-06 -0.000199311 
         -50     0.304506 -1.46724e-05  2.17591e-06 -0.000199312 
         -50      0.32165 -1.46782e-05  2.46706e-06 -0.000199314 
         -50     0.339278 -1.45893e-05  2.81546e-06 -0.000199318 
         -50     0.357377  -1.4405e-05  3.19415e-06 -0.000199322 
         -50      0.37593 -1.41237e-05  3.56465e-06 -0.000199328 
         -50     0.394968 -1.37435e-05  3.88442e-06 -0.000199334 
         -50     0.414461 -1.32654e-05  4.11183e-06  -0.00019934 
         -50      0.43444 -1.26929e-05  4.21553e-06 -0.000199344 
         -50     0.454872 -1.20364e-05  4.17984e-06 -0.000199346 
         -50     0.475791 -1.13105e-05  4.01048e-06 -0.000199343 
         -50     0.497163 -1.05382e-05  3.73667e-06 -0.000199337 
         -50     0.519021 -9.74511e-06  3.40716e-06 -0.000199326 
         -50      0.54135  -8.9599e-06  3.08128e-06  -0.00019931 
         -50     0.564131  -8.2067e-06  2.80814e-06 -0.000199291 
         -50       0.5874 -7.49335e-06  2.59261e-06 -0.000199273 
         -50     0.611121 -6.81076e-06  2.41809e-06  -0.00019926 
         -50      0.63533 -6.25168e-06  2.88688e-06 -0.000199241 
         -50      0.65999 -5.74655e-06  3.32143e-06 -0.000199233 
         -50     0.685139 -5.28864e-06  3.71552e-06 -0.000199233 
         -50     0.710759 -4.87316e-06  4.06348e-06 -0.000199239 
         -50     0.736828 -4.49601e-06  4.36135e-06 -0.000199249 
         -50     0.763387   -4.153e-06  4.60753e-06 -0.000199262 
         -50     0.790396 -3.84179e-06  4.80119e-06 -0.000199276 
         -50     0.817896 -3.55977e-06  4.94373e-06 -0.000199289 
         -50     0.845843 -3.30587e-06  5.03748e-06   -0.0001993 
         -50     0.874283 -3.07869e-06  5.08647e-06 -0.000199309 
         -50      0.90317 -2.87796e-06  5.09564e-06 -0.000199314 
         -50     0.932551 -2.70299e-06  5.07093e-06 -0.000199315 
         -50     0.962401 -2.55359e-06   5.0189e-06 -0.000199312 
         -50     0.992697 -2.42938e-06   4.9466e-06 -0.000199304 
         -50      1.02349 -2.32934e-06  4.86092e-06 -0.000199293 
         -50      1.05472 -2.25231e-06  4.76879e-06 -0.000199277 
         -50      1.08645 -2.19613e-06  4.67623e-06  -0.00019926 
         -50      1.11863 -2.15802e-06  4.58867e-06  -0.00019924 
         -50       1.1513 -2.13413e-06  4.51006e-06 -0.000199219 
         -50      1.18444 -2.11969e-06  4.44312e-06 -0.000199199 
         -50      1.21802 -2.10899e-06   4.3889e-06 -0.000199179 
         -50      1.25211 -2.09548e-06  4.34659e-06 -0.000199162 
         -50      1.28663 -2.07217e-06  4.31386e-06 -0.000199146 
         -50      1.32165 -2.03194e-06  4.28668e-06 -0.000199133 
         -50      1.35712 -1.96836e-06     4.26e-06 -0.000199121 
         -50      1.39308 -1.87631e-06  4.22805e-06  -0.00019911 
         -50      1.42951 -1.75345e-06  4.18544e-06 -0.000199097 
         -50      1.46638 -1.60169e-06   4.1283e-06 -0.000199079 
         -50      1.50375  -1.4286e-06  4.05566e-06 -0.000199049 
         -50      1.54156 -1.20445e-06  3.95384e-06 -0.000199025 
         -50      1.57987 -9.66429e-07  3.85205e-06 -0.000199001 
         -50      1.61863 -7.21727e-07  3.75135e-06 -0.000198975 
         -50      1.65788 -4.73525e-07  3.65084e-06 -0.000198949 
         -50      1.69757 -2.25471e-07  3.55006e-06 -0.000198921 
         -50      1.73776  1.99437e-08  3.44831e-06 -0.000198892 
         -50      1.77842  2.59969e-07  3.34527e-06 -0.000198863 
         -50      1.81952  4.92209e-07  3.24073e-06 -0.000198832 
         -50      1.86113  7.15199e-07  3.13434e-06   -0.0001988 
         -50      1.90316  9.27073e-07  3.02619e-06 -0.000198768 
         -50      1.94571  1.12701e-06  2.91612e-06 -0.000198734 
         -50      1.98869  1.31384e-06  2.80443e-06   -0.0001987 
         -50      2.03217  1.48735e-06  2.69115e-06 -0.000198665 
         -50      2.07612  1.64715e-06  2.57665e-06  -0.00019863 
         -50      2.12051  1.79313e-06  2.46138e-06 -0.000198594 
         -50       2.1654  1.92582e-06  2.34555e-06 -0.000198557 
         -50      2.21073  2.04547e-06  2.22983e-06 -0.000198519 
         -50      2.25656  2.15292e-06   2.1145e-06 -0.000198481 
         -50      2.30283   2.2488e-06  2.00026e-06 -0.000198443 
         -50       2.3496  2.33414e-06  1.88744e-06 -0.000198404 
         -50      2.39685  2.40984e-06  1.77663e-06 -0.000198365 
         -50      2.44452   2.4768e-06  1.66839e-06 -0.000198325 
         -50      2.49271  2.53611e-06  1.56299e-06 -0.000198286 
         -50      2.54132  2.58855e-06  1.46096e-06 -0.000198245 
         -50      2.59044  2.63503e-06  1.36247e-06 -0.000198205 
         -50         2.64  2.67613e-06  1.26789e-06 -0.000198165 
         -50      2.69006  2.71244e-06  1.17721e-06 -0.000198124 
         -50      2.74056  2.74422e-06  1.09061e-06 -0.000198083 
         -50      2.79156  2.77162e-06  1.00789e-06 -0.000198043 
         -50      2.84304  2.79452e-06  9.28922e-07 -0.000198002 
         -50      2.89494  2.81258e-06  8.53484e-07 -0.000197961 
         -50      2.94735   2.8253e-06  7.81057e-07 -0.000197921 
         -50       3.0002  2.83195e-06  7.11266e-07  -0.00019788 
         -50      3.05355  2.83169e-06  6.43434e-07  -0.00019784 
         -50      3.10733  2.82359e-06  5.77043e-07 -0.000197799 
         -50      3.16163  2.80673e-06  5.11341e-07 -0.000197759 
         -50      3.21639   2.7803e-06  4.45753e-07 -0.000197719 
         -50      3.27158  2.74379e-06  3.79768e-07 -0.000197679 
         -50      3.32729    2.697e-06  3.12845e-07  -0.00019764 
         -50      3.38342  2.64051e-06  2.44856e-07   -0.0001976 
         -50      3.44007  2.57558e-06   1.7575e-07 -0.000197561 
         -50      3.49714  2.50482e-06  1.06083e-07 -0.000197522 
         -50      3.55472  2.43211e-06  3.67015e-08 -0.000197484 
         -50      3.61273  2.36341e-06 -3.06793e-08 -0.000197445 
         -50      3.67125  2.30678e-06 -9.37497e-08 -0.000197407 
         -50      3.73025  2.27327e-06 -1.49053e-07  -0.00019737 
         -50      3.78967  2.23623e-06 -2.06703e-07 -0.000197332 
         -50      3.84961  2.18455e-06 -2.67503e-07 -0.000197294 
         -50      3.90996  2.13319e-06 -3.27084e-07 -0.000197256 
         -50      3.97084  2.07097e-06 -3.79672e-07 -0.000197219 
         -50      4.03214  2.00969e-06 -4.30897e-07 -0.000197183 
         -50      4.09395  1.95102e-06 -4.81482e-07 -0.000197146 
         -50      4.15624   1.8948e-06 -5.31093e-07  -0.00019711 
         -50      4.21895  1.84081e-06 -5.79454e-07 -0.000197075 
         -50      4.28217  1.78867e-06 -6.26461e-07  -0.00019704 
         -50      4.34582  1.73817e-06 -6.71903e-07 -0.000197005 
         -50      4.40998  1.68893e-06 -7.15763e-07  -0.00019697 
         -50      4.47457  1.64077e-06 -7.57916e-07 -0.000196936 
         -50      4.53968  1.59338e-06 -7.98409e-07 -0.000196902 
         -50      4.60525  1.54662e-06 -8.37212e-07 -0.000196869 
         -50      4.67125  1.50041e-06 -8.74322e-07 -0.000196836 
         -50      4.73777  1.45462e-06 -9.09839e-07 -0.000196803 
         -50       4.8047  1.40932e-06 -9.43759e-07  -0.00019677 
         -50      4.87216  1.36451e-06  -9.7619e-07 -0.000196738 
         -50      4.94003  1.32038e-06 -1.00714e-06 -0.000196706 
         -50      5.00843  1.27701e-06 -1.03669e-06 -0.000196674 
         -50      5.07724  1.23466e-06 -1.06486e-06 -0.000196643 
         -50      5.14658   1.1934e-06  -1.0917e-06 -0.000196612 
         -50      5.21639   1.1534e-06 -1.11721e-06 -0.000196581 
         -50      5.28661  1.11469e-06 -1.14135e-06 -0.000196551 
         -50      5.35736  1.07707e-06 -1.16416e-06 -0.000196521 
         -50      5.42852  1.04025e-06 -1.18553e-06 -0.000196491 
         -50      5.50021  1.00351e-06 -1.20546e-06 -0.000196462 
         -50      5.57231  9.65848e-07 -1.22383e-06 -0.000196434 
         -50      5.64493  9.25657e-07  -1.2406e-06 -0.000196406 
         -50      5.71803  8.97905e-07 -1.25689e-06 -0.000196377 
         -50      5.79154  8.66481e-07 -1.27199e-06 -0.000196349 
         -50      5.86558  8.32877e-07 -1.28575e-06 -0.000196322 
         -50      5.94003  7.98515e-07 -1.29804e-06 -0.000196295 
         -50      6.01501  7.64479e-07 -1.30889e-06 -0.000196268 
         -50       6.0904  7.31688e-07 -1.31831e-06 -0.000196242 
         -50      6.16632  7.00652e-07 -1.32643e-06 -0.000196216 
         -50      6.24271  6.71635e-07 -1.33336e-06  -0.00019619 
         -50       6.3195  6.44575e-07  -1.3392e-06 -0.000196165 
         -50      6.39683  6.19038e-07 -1.34404e-06  -0.00019614 
         -50      6.47457  5.94412e-07 -1.34782e-06 -0.000196116 
         -50      6.55284  5.69798e-07 -1.35039e-06 -0.000196092 
         -50      6.63152  5.44266e-07 -1.35136e-06 -0.000196068 
         -50      6.71073  5.16808e-07 -1.35006e-06 -0.000196044 
         -50      6.79034  4.93089e-07 -1.34941e-06 -0.000196021 
         -50      6.87049  4.71683e-07 -1.34931e-06 -0.000195998 
         -50      6.95111  4.50203e-07 -1.34843e-06 -0.000195976 
         -50      7.03214  4.28674e-07 -1.34669e-06 -0.000195954 
         -50       7.1137  4.07101e-07 -1.34408e-06 -0.000195932 
         -50      7.19566  3.85581e-07 -1.34059e-06 -0.000195911 
         -50      7.27816  3.64165e-07 -1.33625e-06 -0.000195889 
         -50      7.36106  3.42987e-07  -1.3311e-06 -0.000195868 
         -50      7.44451  3.22136e-07 -1.32521e-06 -0.000195848 
         -50      7.52842   3.0178e-07 -1.31866e-06 -0.000195827 
         -50      7.61273  2.82126e-07 -1.31153e-06 -0.000195807 
         -50      7.69758   2.6339e-07 -1.30388e-06 -0.000195788 
         -50      7.78283  2.45932e-07 -1.29572e-06 -0.000195768 
         -50      7.86862  2.30167e-07 -1.28701e-06 -0.000195749 
         -50      7.95481  2.16713e-07 -1.27765e-06 -0.000195731 
         -50      8.04155  2.06339e-07 -1.26737e-06 -0.000195713 
         -50      8.12868  1.89762e-07 -1.25806e-06 -0.000195694 
         -50      8.21635  1.72594e-07 -1.24806e-06 -0.000195676 
         -50      8.30449  1.57134e-07  -1.2368e-06 -0.000195658 
         -50      8.39303  1.43017e-07 -1.22437e-06  -0.00019564 
         -50      8.48211  1.29891e-07 -1.21091e-06 -0.000195623 
         -50      8.57159  1.17493e-07 -1.19667e-06 -0.000195606 
         -50      8.66161  1.05552e-07 -1.18185e-06  -0.00019559 
         -50      8.75203  9.38574e-08 -1.16676e-06 -0.000195574 
         -50      8.84299  8.21678e-08 -1.15162e-06 -0.000195557 
         -50      8.93443  7.02587e-08 -1.13664e-06 -0.000195541 
         -50      9.02626  5.78724e-08 -1.12188e-06 -0.000195526 
         -50      9.11863  4.46616e-08 -1.10718e-06  -0.00019551 
         -50      9.21139  3.02299e-08 -1.09214e-06 -0.000195495 
         -50      9.30471  1.40101e-08  -1.0759e-06  -0.00019548 
         -50      9.39841  8.23426e-10 -1.06044e-06 -0.000195465 
         -50      9.49267 -7.07331e-09 -1.04676e-06  -0.00019545 
         -50      9.58739  -1.4313e-08 -1.03236e-06 -0.000195436 
         -50      9.68251  -2.1135e-08 -1.01735e-06 -0.000195421 
         -50      9.77817 -2.77215e-08 -1.00178e-06 -0.000195407 
         -50      9.87422 -3.41701e-08 -9.85743e-07 -0.000195393 
         -50      9.97083 -4.05466e-08 -9.69309e-07  -0.00019538 
         -50      10.0678 -4.68534e-08  -9.5258e-07 -0.000195366 
         -50      10.1654   -5.308e-08 -9.35606e-07 -0.000195353 
         -50      10.2633 -5.91724e-08 -9.18484e-07 -0.000195339 
         -50      10.3618 -6.50806e-08 -9.01248e-07 -0.000195326 
         -50      10.4607  -7.0733e-08 -8.83965e-07 -0.000195313 
         -50      10.5601 -7.60592e-08 -8.66693e-07 -0.000195301 
         -50        10.66 -8.10082e-08 -8.49437e-07 -0.000195288 
         -50      10.7603 -8.55249e-08 -8.32247e-07 -0.000195275 
         -50      10.8611 -8.95865e-08 -8.15106e-07 -0.000195263 
         -50      10.9623 -9.31761e-08 -7.98044e-07  -0.00019525 
         -50      11.0641 -9.63114e-08 -7.81028e-07 -0.000195238 
         -50      11.1663 -9.90235e-08 -7.64056e-07 -0.000195226 
         -50       11.269 -1.01366e-07 -7.47125e-07 -0.000195214 
         -50      11.3721 -1.03416e-07 -7.30188e-07 -0.000195202 
         -50      11.4757 -1.05255e-07 -7.13256e-07  -0.00019519 
         -50      11.5798 -1.06979e-07 -6.96292e-07 -0.000195178 
         -50      11.6844 -1.08672e-07 -6.79326e-07 -0.000195166 
         -50      11.7894 -1.10409e-07 -6.62351e-07 -0.000195154 
         -50       11.895 -1.12227e-07 -6.45429e-07 -0.000195143 
         -50      12.0009 -1.14117e-07 -6.28655e-07 -0.000195131 
         -50      12.1073 -1.16002e-07 -6.12127e-07  -0.00019512 
         -50      12.2142 -1.17707e-07  -5.9605e-07 -0.000195109 
         -50      12.3216 -1.18938e-07 -5.80644e-07 -0.000195098 
         -50      12.4294 -1.19244e-07 -5.66258e-07 -0.000195087 
         -50      12.5378 -1.17983e-07 -5.53285e-07 -0.000195077 
         -50      12.6465 -1.19993e-07 -5.43579e-07 -0.000195066 
         -50      12.7558 -1.33475e-07 -5.39828e-07 -0.000195056 
         -50      12.8656 -1.23851e-07 -5.17978e-07 -0.000195048 
         -50      12.9757 -1.19515e-07 -5.00733e-07 -0.000195039 
         -50      13.0864 -1.26101e-07 -4.86952e-07 -0.000195027 
         -50      13.1975 -1.31291e-07 -4.73678e-07 -0.000195015 
         -50      13.3092 -1.35094e-07 -4.60805e-07 -0.000195003 
         -50      13.4212 -1.37582e-07 -4.48288e-07 -0.000194992 
         -50      13.5338 -1.38893e-07 -4.36055e-07  -0.00019498 
         -50      13.6468 -1.39199e-07 -4.24076e-07 -0.000194968 
         -50      13.7603 -1.38702e-07  -4.1233e-07 -0.000194957 
         -50      13.8743 -1.37612e-07 -4.00774e-07 -0.000194946 
         -50      13.9886 -1.36142e-07 -3.89408e-07 -0.000194935 
         -50      14.1036 -1.34485e-07 -3.78197e-07 -0.000194924 
         -50      14.2189 -1.32816e-07 -3.67146e-07 -0.000194913 
         -50      14.3348 -1.31273e-07 -3.56224e-07 -0.000194902 
         -50       14.451 -1.29957e-07 -3.45432e-07 -0.000194891 
         -50      14.5678 -1.28923e-07 -3.34738e-07 -0.000194881 
         -50      14.6851 -1.28179e-07 -3.24133e-07  -0.00019487 
         -50      14.8028 -1.27686e-07 -3.13606e-07 -0.000194859 
         -50       14.921 -1.27359e-07  -3.0312e-07 -0.000194849 
         -50      15.0396 -1.27075e-07 -2.92673e-07 -0.000194838 
         -50      15.1588 -1.26677e-07  -2.8223e-07 -0.000194827 
         -50      15.2783 -1.25988e-07 -2.71795e-07 -0.000194816 
         -50      15.3984 -1.24827e-07 -2.61344e-07 -0.000194806 
         -50       15.519 -1.23024e-07  -2.5089e-07 -0.000194794 
         -50        15.64  -1.2045e-07 -2.40458e-07 -0.000194783 
         -50      15.7615 -1.17034e-07 -2.30071e-07 -0.000194772 
         -50      15.8834 -1.12807e-07 -2.19808e-07 -0.000194761 
         -50      16.0058 -1.07921e-07 -2.09747e-07 -0.000194749 
         -50      16.1286 -1.02719e-07 -2.00039e-07 -0.000194738 
         -50       16.252 -9.77449e-08 -1.90848e-07 -0.000194726 
         -50      16.3759 -9.38336e-08 -1.82423e-07 -0.000194715 
         -50      16.5002  -9.2149e-08 -1.75074e-07 -0.000194703 
         -50       16.625 -9.42515e-08 -1.69175e-07 -0.000194692 
         -50      16.7501 -1.01583e-07 -1.61475e-07  -0.00019468 
         -50      16.8759 -1.06636e-07  -1.5091e-07 -0.000194669 
         -50       17.002 -1.07929e-07 -1.41431e-07 -0.000194657 
         -50      17.1287 -1.06557e-07 -1.32728e-07 -0.000194645 
         -50      17.2557 -1.03414e-07 -1.24582e-07 -0.000194633 
         -50      17.3834 -9.92107e-08 -1.16807e-07 -0.000194621 
         -50      17.5115  -9.4508e-08 -1.09286e-07 -0.000194608 
         -50      17.6399  -8.9731e-08 -1.01946e-07 -0.000194596 
         -50       17.769 -8.51744e-08 -9.47336e-08 -0.000194584 
         -50      17.8984 -8.10474e-08 -8.76499e-08 -0.000194571 
         -50      18.0284 -7.74625e-08 -8.06972e-08 -0.000194559 
         -50      18.1587 -7.44775e-08  -7.3918e-08 -0.000194546 
         -50      18.2896 -7.20878e-08 -6.73443e-08 -0.000194533 
         -50       18.421 -7.02583e-08 -6.10296e-08  -0.00019452 
         -50      18.5528  -6.8926e-08 -5.50258e-08 -0.000194507 
         -50      18.6851 -6.80095e-08 -4.93641e-08 -0.000194494 
         -50      18.8178  -6.7425e-08 -4.40826e-08 -0.000194481 
         -50      18.9511  -6.7086e-08 -3.91847e-08 -0.000194468 
         -50      19.0847 -6.69132e-08 -3.46683e-08 -0.000194454 
         -50      19.2189 -6.68335e-08 -3.04901e-08 -0.000194441 
         -50      19.3535 -6.67822e-08 -2.65904e-08 -0.000194428 
         -50      19.4886 -6.66987e-08 -2.28629e-08 -0.000194414 
         -50      19.6242 -6.65222e-08  -1.9174e-08 -0.000194401 
         -50      19.7602 -6.61825e-08 -1.53508e-08 -0.000194388 
         -50      19.8968 -6.55877e-08 -1.11701e-08 -0.000194374 
         -50      20.0337 -6.46107e-08  -6.3797e-09 -0.000194361 
         -50      20.1712  -6.3066e-08 -6.70006e-10 -0.000194347 
         -50      20.3091 -6.14175e-08   5.1245e-09 -0.000194333 
         -50      20.4475 -6.04758e-08   7.3783e-09 -0.000194319 
         -50      20.5864 -5.74278e-08  9.32854e-09 -0.000194304 
         -50      20.7257 -5.23878e-08  1.09152e-08 -0.000194289 
         -50      20.8655 -4.54783e-08   1.2038e-08 -0.000194275 
         -50      21.0058 -3.68658e-08  1.25316e-08  -0.00019426 
         -50      21.1465 -2.67201e-08  1.21535e-08 -0.000194245 
         -50      21.2877 -1.86079e-08  1.78798e-08 -0.000194231 
         -50      21.4294 -2.17388e-08  2.90747e-08 -0.000194217 
         -50      21.5716  -2.8132e-08  3.59631e-08 -0.000194202 
         -50      21.7142 -3.32587e-08  3.91716e-08 -0.000194188 
         -50      21.8573 -3.61163e-08  3.91714e-08 -0.000194173 
         -50      22.0008 -3.90468e-08  3.92818e-08 -0.000194158 
         -50      22.1449 -4.18132e-08  4.41962e-08  -0.00019414 
         -50      22.2893 -4.15298e-08  4.82497e-08 -0.000194122 
         -50      22.4344 -3.89285e-08  5.14838e-08 -0.000194105 
         -50      22.5797 -3.47126e-08  5.40102e-08 -0.000194089 
         -50      22.7257 -2.95284e-08  5.59993e-08 -0.000194072 
         -50      22.8721 -2.39715e-08  5.76383e-08 -0.000194057 
         -50      23.0189 -1.85658e-08  5.91131e-08 -0.000194041 
         -50      23.1663 -1.37386e-08  6.05915e-08 -0.000194025 
         -50       23.314 -9.84018e-09  6.21986e-08  -0.00019401 
         -50      23.4623 -7.10651e-09  6.40156e-08 -0.000193994 
         -50       23.611  -5.6773e-09  6.60635e-08 -0.000193978 
         -50      23.7602 -5.57498e-09  6.83134e-08 -0.000193962 
         -50        23.91   -6.713e-09  7.06811e-08 -0.000193946 
         -50        24.06  -8.8881e-09   7.3042e-08 -0.000193929 
         -50      24.2107 -1.17922e-08   7.5255e-08 -0.000193912 
         -50      24.3617 -1.50039e-08  7.71743e-08 -0.000193895 
         -50      24.5133 -1.80128e-08  7.86942e-08 -0.000193877 
         -50      24.6653 -2.02109e-08  7.97773e-08 -0.000193859 
         -50      24.8178 -2.09226e-08  8.05112e-08 -0.000193841 
         -50      24.9708 -1.94072e-08  8.11587e-08 -0.000193823 
         -50      25.1242 -1.48912e-08  8.22252e-08 -0.000193806 
         -50      25.2781 -6.57234e-09   8.4537e-08  -0.00019379 
         -50      25.4324  6.32109e-09  8.93165e-08 -0.000193775 
         -50      25.5873  8.99182e-09  8.97099e-08 -0.000193755 
         -50      25.7426  3.72961e-09  8.95209e-08 -0.000193735 
         -50      25.8984 -3.03993e-09  8.95021e-08 -0.000193715 
         -50      26.0546 -7.33233e-09  8.97886e-08 -0.000193696 
         -50      26.2114 -7.10956e-09  9.04385e-08 -0.000193677 
         -50      26.3686 -2.22276e-09  9.14241e-08 -0.000193658 
         -50      26.5262  5.80791e-09  9.26401e-08 -0.000193639 
         -50      26.6844  1.43003e-08   9.3935e-08 -0.000193621 
         -50      26.8429  2.00789e-08  9.51491e-08 -0.000193603 
         -50       27.002  2.04852e-08  9.61889e-08 -0.000193584 
         -50      27.1615  1.45849e-08  9.71056e-08 -0.000193566 
         -50      27.3216  4.68875e-09  9.82124e-08 -0.000193547 
         -50      27.4821 -1.80191e-09  1.00212e-07 -0.000193528 
         -50       27.643 -6.03071e-09  1.01354e-07 -0.000193508 
         -50      27.8044  -1.0421e-08  1.01266e-07 -0.000193488 
         -50      27.9663 -1.10921e-08   1.0115e-07 -0.000193467 
         -50      28.1287 -9.09004e-09  1.01032e-07 -0.000193447 
         -50      28.2914 -5.29484e-09  1.00933e-07 -0.000193427 
         -50      28.4548 -4.25134e-10  1.00867e-07 -0.000193407 
         -50      28.6185  4.92662e-09  1.00844e-07 -0.000193387 
         -50      28.7828  1.03094e-08  1.00869e-07 -0.000193367 
         -50      28.9475  1.53717e-08  1.00945e-07 -0.000193347 
         -50      29.1126  1.98621e-08  1.01068e-07 -0.000193326 
         -50      29.2784  2.36268e-08  1.01234e-07 -0.000193306 
         -50      29.4444  2.65729e-08  1.01436e-07 -0.000193286 
         -50       29.611  2.86809e-08  1.01664e-07 -0.000193265 
         -50       29.778  2.99741e-08  1.01908e-07 -0.000193244 
         -50      29.9456   3.0522e-08  1.02156e-07 -0.000193224 
         -50      30.1137  3.04204e-08  1.02397e-07 -0.000193203 
         -50      30.2821   2.9788e-08  1.02617e-07 -0.000193182 
         -50      30.4511  2.87535e-08  1.02807e-07  -0.00019316 
         -50      30.6204  2.74516e-08  1.02955e-07 -0.000193139 
         -50      30.7903    2.601e-08  1.03052e-07 -0.000193117 
         -50      30.9606  2.45507e-08   1.0309e-07 -0.000193096 
         -50      31.1315  2.31759e-08  1.03064e-07 -0.000193074 
         -50      31.3028  2.19717e-08  1.02969e-07 -0.000193052 
         -50      31.4745  2.10007e-08  1.02805e-07  -0.00019303 
         -50      31.6468  2.02982e-08  1.02573e-07 -0.000193008 
         -50      31.8194  1.98761e-08  1.02279e-07 -0.000192985 
         -50      31.9926  1.97193e-08   1.0193e-07 -0.000192963 
         -50      32.1662  1.97897e-08  1.01538e-07  -0.00019294 
         -50      32.3404  2.00287e-08  1.01117e-07 -0.000192918 
         -50      32.5149  2.03615e-08  1.00686e-07 -0.000192895 
         -50        32.69   2.0705e-08  1.00267e-07 -0.000192872 
         -50      32.8655  2.09741e-08   9.9884e-08 -0.000192849 
         -50      33.0414  2.10929e-08   9.9567e-08 -0.000192826 
         -50       33.218  2.10062e-08  9.93473e-08 -0.000192803 
         -50      33.3948  2.06931e-08  9.92601e-08  -0.00019278 
         -50      33.5723  2.01824e-08  9.93431e-08 -0.000192757 
         -50        33.75  1.95721e-08  9.96363e-08 -0.000192734 
         -50      33.9284   1.9047e-08  1.00183e-07 -0.000192711 
         -50      34.1073  1.89048e-08  1.01026e-07 -0.000192688 
         -50      34.2865  1.95774e-08   1.0221e-07 -0.000192664 
         -50      34.4663  2.16627e-08  1.03782e-07 -0.000192641 
         -50      34.6465  2.59471e-08  1.05785e-07 -0.000192618 
         -50      34.8272  3.34551e-08  1.08267e-07 -0.000192594 
         -50      35.0083  4.30027e-08  1.05184e-07 -0.000192571 
         -50        35.19  5.28453e-08  9.83881e-08 -0.000192548 
         -50      35.3721  6.43548e-08  9.13577e-08 -0.000192527 
         -50      35.5546  6.78627e-08  8.44826e-08 -0.000192506 
         -50      35.7377  2.97362e-08  8.63904e-08  -0.00019248 
         -50      35.9211  8.05564e-09  8.79504e-08 -0.000192455 
         -50      36.1052 -1.11138e-09  8.90551e-08  -0.00019243 
         -50      36.2895  -1.1307e-09  8.96199e-08 -0.000192405 
         -50      36.4745  5.09255e-09  8.95904e-08 -0.000192381 
         -50      36.6598    1.509e-08  8.89378e-08 -0.000192356 
         -50      36.8457  2.69899e-08  8.79393e-08 -0.000192333 
         -50      37.0321  4.12803e-08   9.1209e-08 -0.000192308 
         -50      37.2188  5.36547e-08  9.39559e-08 -0.000192284 
         -50      37.4062  6.34995e-08  9.61365e-08  -0.00019226 
         -50      37.5938  7.04487e-08  9.77463e-08 -0.000192236 
         -50      37.7821  7.44024e-08  9.88238e-08 -0.000192212 
         -50      37.9707  7.54432e-08  9.94315e-08 -0.000192187 
         -50      38.1599  7.38219e-08  9.96545e-08 -0.000192163 
         -50      38.3496  6.99099e-08  9.95886e-08 -0.000192138 
         -50      38.5396  6.41749e-08  9.93352e-08 -0.000192113 
         -50      38.7302  5.71258e-08  9.89935e-08 -0.000192088 
         -50      38.9211  4.93178e-08  9.86562e-08 -0.000192063 
         -50      39.1127  4.12808e-08  9.84025e-08 -0.000192038 
         -50      39.3046  3.35432e-08   9.8296e-08 -0.000192013 
         -50      39.4971  2.65599e-08  9.83796e-08 -0.000191987 
         -50      39.6899  2.07412e-08  9.86738e-08 -0.000191962 
         -50      39.8833  1.63938e-08  9.91758e-08 -0.000191936 
         -50      40.0772  1.37439e-08  9.98576e-08 -0.000191911 
         -50      40.2714  1.29076e-08  1.00667e-07 -0.000191885 
         -50      40.4663   1.3891e-08   1.0153e-07  -0.00019186 
         -50      40.6615  1.65905e-08  1.02353e-07 -0.000191834 
         -50      40.8573  2.08021e-08  1.03029e-07 -0.000191809 
         -50      41.0534  2.62135e-08  1.03436e-07 -0.000191783 
         -50      41.2501  3.24422e-08  1.03454e-07 -0.000191757 
         -50      41.4473  3.90254e-08  1.02964e-07 -0.000191732 
         -50      41.6448  4.54551e-08  1.01864e-07 -0.000191706 
         -50      41.8429  5.12226e-08  1.00074e-07 -0.000191681 
         -50      42.0414  5.58182e-08  9.75576e-08 -0.000191655 
         -50      42.2405  5.88059e-08  9.43226e-08  -0.00019163 
         -50      42.4399  5.98419e-08  9.04551e-08 -0.000191604 
         -50      42.6399  5.87446e-08  8.61161e-08 -0.000191579 
         -50      42.8404  5.55443e-08  8.15822e-08 -0.000191553 
         -50      43.0412  5.05594e-08  7.72578e-08 -0.000191527 
         -50      43.2426  4.44498e-08  7.36889e-08   -0.0001915 
         -50      43.4444  3.83279e-08  7.16103e-08 -0.000191474 
         -50      43.6467  3.38112e-08  7.19541e-08 -0.000191447 
         -50      43.8494  3.31526e-08  7.58893e-08 -0.000191419 
         -50      44.0527  3.93247e-08  8.48613e-08  -0.00019139 
         -50      44.2563  5.61278e-08  9.98649e-08 -0.000191361 
         -50      44.4606   7.5243e-08  8.85332e-08 -0.000191338 
         -50      44.6653  8.61836e-08  8.02449e-08 -0.000191314 
         -50      44.8704  8.97644e-08  7.45235e-08 -0.000191289 
         -50       45.076  8.70186e-08  7.09003e-08 -0.000191264 
         -50       45.282  7.91731e-08  6.89598e-08 -0.000191237 
         -50      45.4886  6.76178e-08  6.83325e-08  -0.00019121 
         -50      45.6955  5.39324e-08  6.87269e-08 -0.000191183 
         -50       45.903   3.9798e-08  6.99435e-08 -0.000191155 
         -50      46.1111  2.70486e-08  7.18939e-08 -0.000191127 
         -50      46.3194  1.76109e-08   7.4619e-08 -0.000191099 
         -50      46.5283  1.34638e-08  7.83186e-08 -0.000191071 
         -50      46.7376  1.66553e-08  8.33549e-08 -0.000191044 
         -50      46.9475  2.92577e-08  9.02993e-08 -0.000191017 
         -50      47.1577  5.33131e-08  9.99195e-08  -0.00019099 
         -50      47.3685  6.19097e-08  1.04736e-07 -0.000190963 
         -50      47.5798  3.32148e-08  9.76446e-08 -0.000190934 
         -50      47.7914  1.31033e-08  9.20086e-08 -0.000190905 
         -50      48.0037 -2.13384e-10  8.76641e-08 -0.000190876 