Variables = x, y, u, v, p

Zone, I=20800, F=POINT
         -50            0            0            0  0.000592127 
         -50     0.000234  1.79625e-08   5.9591e-13  0.000592127 
         -50     0.000939  7.03491e-08  6.74404e-11  0.000592127 
         -50     0.002113  1.51881e-07  3.93759e-10  0.000592127 
         -50     0.003759  2.54406e-07  1.29781e-09  0.000592128 
         -50     0.005872  3.66365e-07  3.20936e-09  0.000592128 
         -50     0.008457  4.74265e-07  6.67259e-09  0.000592129 
         -50      0.01151  5.62139e-07  1.23202e-08  0.000592129 
         -50     0.015036  6.12826e-07  2.08892e-08   0.00059213 
         -50     0.019031  6.08043e-07  3.31786e-08   0.00059213 
         -50     0.023493  5.29437e-07  5.00537e-08  0.000592131 
         -50     0.028429  3.58766e-07  7.24724e-08  0.000592132 
         -50     0.033831  7.92107e-08  1.01363e-07  0.000592133 
         -50     0.039706 -3.25023e-07   1.3773e-07  0.000592134 
         -50     0.046047 -8.66632e-07  1.82467e-07  0.000592135 
         -50     0.052863 -1.55676e-06  2.36503e-07  0.000592135 
         -50      0.06015 -2.40213e-06  3.00582e-07  0.000592136 
         -50       0.0679 -3.40499e-06  3.75308e-07  0.000592137 
         -50     0.076126 -4.56662e-06  4.61519e-07  0.000592138 
         -50     0.084816 -5.88175e-06  5.60054e-07  0.000592139 
         -50     0.093982 -7.34364e-06  6.70073e-07   0.00059214 
         -50     0.103611 -8.93853e-06  7.91816e-07   0.00059214 
         -50     0.113718 -1.06549e-05  9.26415e-07  0.000592141 
         -50     0.124286 -1.24731e-05   1.0737e-06  0.000592142 
         -50     0.135333  -1.4377e-05  1.23328e-06  0.000592142 
         -50      0.14685 -1.63442e-05    1.404e-06  0.000592142 
         -50     0.158827 -1.83516e-05  1.58482e-06  0.000592142 
         -50     0.171284  -2.0381e-05  1.77579e-06  0.000592142 
         -50     0.184201 -2.24084e-05  1.97753e-06  0.000592142 
         -50     0.197599 -2.44181e-05  2.19264e-06  0.000592142 
         -50     0.211455 -2.63892e-05  2.42392e-06  0.000592142 
         -50     0.225792 -2.83096e-05  2.67445e-06  0.000592141 
         -50       0.2406 -3.01633e-05  2.94307e-06   0.00059214 
         -50     0.255865 -3.19306e-05  3.22989e-06  0.000592138 
         -50     0.271613  -3.3606e-05  3.54449e-06  0.000592137 
         -50     0.287818 -3.51802e-05  3.87507e-06  0.000592135 
         -50     0.304506 -3.66418e-05  4.21506e-06  0.000592132 
         -50      0.32165 -3.79776e-05  4.55057e-06  0.000592128 
         -50     0.339278 -3.91817e-05  4.86548e-06  0.000592125 
         -50     0.357377 -4.02479e-05  5.14307e-06  0.000592124 
         -50      0.37593 -4.11732e-05  5.37093e-06  0.000592123 
         -50     0.394968 -4.19589e-05   5.5455e-06  0.000592125 
         -50     0.414461  -4.2606e-05  5.67436e-06  0.000592127 
         -50      0.43444 -4.31184e-05  5.77977e-06  0.000592131 
         -50     0.454872 -4.34993e-05  5.89805e-06  0.000592135 
         -50     0.475791  -4.3753e-05  6.07753e-06  0.000592138 
         -50     0.497163 -4.38821e-05  6.37001e-06   0.00059214 
         -50     0.519021 -4.38886e-05  6.81825e-06   0.00059214 
         -50      0.54135 -4.37729e-05  7.43225e-06  0.000592136 
         -50     0.564131 -4.35346e-05  8.15613e-06  0.000592128 
         -50       0.5874 -4.31723e-05  8.82338e-06  0.000592115 
         -50     0.611121 -4.26853e-05  9.10845e-06    0.0005921 
         -50      0.63533 -4.20301e-05  9.31327e-06  0.000592103 
         -50      0.65999 -4.12315e-05  9.59434e-06    0.0005921 
         -50     0.685139 -4.03235e-05  9.92274e-06  0.000592094 
         -50     0.710759 -3.93396e-05  1.02738e-05  0.000592087 
         -50     0.736828 -3.83105e-05  1.06277e-05  0.000592081 
         -50     0.763387 -3.72608e-05  1.09706e-05  0.000592077 
         -50     0.790396 -3.62148e-05  1.12922e-05  0.000592077 
         -50     0.817896 -3.51894e-05  1.15879e-05  0.000592082 
         -50     0.845843 -3.42006e-05  1.18561e-05  0.000592092 
         -50     0.874283 -3.32566e-05  1.20999e-05  0.000592109 
         -50      0.90317 -3.23649e-05  1.23241e-05  0.000592132 
         -50     0.932551 -3.15253e-05  1.25363e-05  0.000592161 
         -50     0.962401  -3.0736e-05  1.27445e-05  0.000592196 
         -50     0.992697 -2.99913e-05  1.29569e-05  0.000592234 
         -50      1.02349 -2.92804e-05  1.31814e-05  0.000592276 
         -50      1.05472  -2.8592e-05   1.3423e-05   0.00059232 
         -50      1.08645 -2.79105e-05  1.36849e-05  0.000592364 
         -50      1.11863 -2.72209e-05  1.39658e-05  0.000592407 
         -50       1.1513 -2.65054e-05  1.42617e-05  0.000592447 
         -50      1.18444 -2.57484e-05  1.45632e-05  0.000592483 
         -50      1.21802 -2.49352e-05  1.48577e-05  0.000592514 
         -50      1.25211 -2.40518e-05  1.51298e-05  0.000592539 
         -50      1.28663   -2.309e-05  1.53623e-05   0.00059256 
         -50      1.32165 -2.20427e-05  1.55398e-05  0.000592579 
         -50      1.35712 -2.09117e-05  1.56509e-05  0.000592597 
         -50      1.39308 -1.97013e-05  1.56941e-05   0.00059262 
         -50      1.42951 -1.84252e-05  1.56838e-05  0.000592656 
         -50      1.46638  -1.7105e-05  1.56583e-05  0.000592714 
         -50      1.50375 -1.57671e-05  1.56899e-05  0.000592807 
         -50      1.54156 -1.44158e-05  1.57701e-05  0.000592861 
         -50      1.57987 -1.30642e-05  1.58243e-05  0.000592914 
         -50      1.61863 -1.17212e-05  1.58549e-05   0.00059297 
         -50      1.65788   -1.039e-05  1.58634e-05  0.000593029 
         -50      1.69757 -9.07822e-06  1.58513e-05  0.000593092 
         -50      1.73776 -7.78873e-06    1.582e-05  0.000593157 
         -50      1.77842 -6.52747e-06   1.5771e-05  0.000593224 
         -50      1.81952 -5.30009e-06  1.57054e-05  0.000593294 
         -50      1.86113 -4.10895e-06  1.56245e-05  0.000593366 
         -50      1.90316 -2.96004e-06  1.55295e-05   0.00059344 
         -50      1.94571 -1.85526e-06  1.54212e-05  0.000593515 
         -50      1.98869 -7.99785e-07  1.53007e-05  0.000593592 
         -50      2.03217  2.05067e-07  1.51687e-05   0.00059367 
         -50      2.07612  1.15578e-06  1.50261e-05  0.000593749 
         -50      2.12051  2.04944e-06  1.48737e-05  0.000593829 
         -50       2.1654  2.88567e-06   1.4712e-05  0.000593909 
         -50      2.21073  3.66177e-06  1.45417e-05   0.00059399 
         -50      2.25656  4.37808e-06  1.43632e-05  0.000594071 
         -50      2.30283  5.03302e-06  1.41772e-05  0.000594153 
         -50       2.3496  5.62761e-06   1.3984e-05  0.000594235 
         -50      2.39685  6.16181e-06  1.37841e-05  0.000594316 
         -50      2.44452  6.63617e-06  1.35781e-05  0.000594398 
         -50      2.49271  7.05284e-06  1.33663e-05  0.000594479 
         -50      2.54132  7.41298e-06  1.31495e-05   0.00059456 
         -50      2.59044  7.71939e-06  1.29277e-05   0.00059464 
         -50         2.64  7.97422e-06  1.27019e-05   0.00059472 
         -50      2.69006  8.18087e-06  1.24722e-05    0.0005948 
         -50      2.74056  8.34234e-06  1.22397e-05  0.000594879 
         -50      2.79156  8.46249e-06  1.20047e-05  0.000594957 
         -50      2.84304  8.54502e-06  1.17681e-05  0.000595035 
         -50      2.89494  8.59395e-06  1.15308e-05  0.000595113 
         -50      2.94735  8.61349e-06  1.12933e-05   0.00059519 
         -50       3.0002  8.60778e-06  1.10568e-05  0.000595266 
         -50      3.05355  8.58096e-06  1.08217e-05  0.000595342 
         -50      3.10733  8.53707e-06  1.05893e-05  0.000595417 
         -50      3.16163   8.4798e-06    1.036e-05  0.000595491 
         -50      3.21639  8.41261e-06  1.01347e-05  0.000595566 
         -50      3.27158  8.33852e-06  9.91426e-06  0.000595639 
         -50      3.32729  8.25976e-06  9.69867e-06  0.000595712 
         -50      3.38342  8.17805e-06  9.48847e-06  0.000595784 
         -50      3.44007  8.09396e-06  9.28317e-06  0.000595856 
         -50      3.49714  8.00726e-06   9.0825e-06  0.000595926 
         -50      3.55472  7.91618e-06    8.885e-06  0.000595996 
         -50      3.61273  7.81778e-06  8.68921e-06  0.000596064 
         -50      3.67125  7.70715e-06  8.49218e-06   0.00059613 
         -50      3.73025  7.57775e-06  8.29049e-06  0.000596195 
         -50      3.78967  7.45312e-06  8.09883e-06  0.000596259 
         -50      3.84961  7.34026e-06  7.91481e-06  0.000596323 
         -50      3.90996  7.22853e-06  7.73251e-06  0.000596386 
         -50      3.97084  7.11495e-06  7.55273e-06  0.000596449 
         -50      4.03214  7.00194e-06  7.37644e-06  0.000596511 
         -50      4.09395  6.88983e-06  7.20331e-06  0.000596572 
         -50      4.15624  6.77884e-06  7.03346e-06  0.000596633 
         -50      4.21895  6.66914e-06  6.86703e-06  0.000596692 
         -50      4.28217  6.56062e-06  6.70378e-06  0.000596751 
         -50      4.34582  6.45349e-06  6.54403e-06  0.000596809 
         -50      4.40998  6.34761e-06  6.38759e-06  0.000596866 
         -50      4.47457  6.24317e-06  6.23475e-06  0.000596922 
         -50      4.53968     6.14e-06  6.08529e-06  0.000596977 
         -50      4.60525   6.0382e-06  5.93937e-06   0.00059703 
         -50      4.67125  5.93783e-06  5.79707e-06  0.000597083 
         -50      4.73777  5.83875e-06  5.65812e-06  0.000597135 
         -50       4.8047  5.74109e-06  5.52266e-06  0.000597187 
         -50      4.87216  5.64472e-06  5.39035e-06  0.000597237 
         -50      4.94003  5.54978e-06  5.26126e-06  0.000597286 
         -50      5.00843   5.4561e-06  5.13504e-06  0.000597335 
         -50      5.07724  5.36385e-06  5.01171e-06  0.000597382 
         -50      5.14658  5.27284e-06  4.89093e-06  0.000597429 
         -50      5.21639  5.18312e-06  4.77269e-06  0.000597476 
         -50      5.28661   5.0947e-06  4.65703e-06  0.000597521 
         -50      5.35736  5.00734e-06  4.54383e-06  0.000597565 
         -50      5.42852  4.92104e-06  4.43348e-06  0.000597609 
         -50      5.50021  4.83545e-06   4.3262e-06  0.000597652 
         -50      5.57231  4.75043e-06  4.22282e-06  0.000597693 
         -50      5.64493  4.66544e-06  4.12419e-06  0.000597733 
         -50      5.71803  4.58265e-06  4.02191e-06  0.000597774 
         -50      5.79154  4.50142e-06  3.92328e-06  0.000597813 
         -50      5.86558  4.42141e-06  3.82769e-06  0.000597852 
         -50      5.94003  4.34262e-06  3.73502e-06   0.00059789 
         -50      6.01501  4.26491e-06  3.64496e-06  0.000597927 
         -50       6.0904  4.18842e-06  3.55752e-06  0.000597963 
         -50      6.16632  4.11309e-06  3.47246e-06  0.000597999 
         -50      6.24271  4.03906e-06  3.38971e-06  0.000598033 
         -50       6.3195  3.96643e-06  3.30911e-06  0.000598067 
         -50      6.39683  3.89508e-06  3.23026e-06  0.000598101 
         -50      6.47457  3.82508e-06  3.15291e-06  0.000598133 
         -50      6.55284  3.75615e-06  3.07652e-06  0.000598165 
         -50      6.63152  3.68814e-06  3.00076e-06  0.000598195 
         -50      6.71073  3.62056e-06  2.92507e-06  0.000598225 
         -50      6.79034  3.55482e-06  2.85563e-06  0.000598254 
         -50      6.87049  3.49056e-06  2.78901e-06  0.000598283 
         -50      6.95111  3.42709e-06  2.72297e-06   0.00059831 
         -50      7.03214  3.36438e-06  2.65801e-06  0.000598337 
         -50       7.1137   3.3023e-06  2.59437e-06  0.000598363 
         -50      7.19566    3.241e-06  2.53243e-06  0.000598388 
         -50      7.27816  3.18047e-06   2.4723e-06  0.000598413 
         -50      7.36106   3.1209e-06  2.41417e-06  0.000598436 
         -50      7.44451  3.06233e-06  2.35799e-06  0.000598459 
         -50      7.52842  3.00491e-06  2.30372e-06  0.000598481 
         -50      7.61273  2.94879e-06  2.25124e-06  0.000598503 
         -50      7.69758  2.89394e-06  2.20015e-06  0.000598523 
         -50      7.78283  2.84043e-06  2.15009e-06  0.000598543 
         -50      7.86862  2.78809e-06  2.10036e-06  0.000598562 
         -50      7.95481   2.7368e-06  2.05023e-06   0.00059858 
         -50      8.04155  2.68614e-06   1.9986e-06  0.000598598 
         -50      8.12868  2.63636e-06  1.95339e-06  0.000598615 
         -50      8.21635  2.58696e-06  1.90988e-06  0.000598631 
         -50      8.30449  2.53811e-06   1.8665e-06  0.000598647 
         -50      8.39303  2.49007e-06  1.82384e-06  0.000598662 
         -50      8.48211  2.44291e-06   1.7822e-06  0.000598676 
         -50      8.57159  2.39675e-06  1.74186e-06   0.00059869 
         -50      8.66161  2.35154e-06  1.70283e-06  0.000598703 
         -50      8.75203   2.3073e-06  1.66517e-06  0.000598715 
         -50      8.84299  2.26386e-06  1.62875e-06  0.000598727 
         -50      8.93443  2.22117e-06  1.59347e-06  0.000598738 
         -50      9.02626  2.17911e-06  1.55925e-06  0.000598748 
         -50      9.11863  2.13749e-06  1.52594e-06  0.000598758 
         -50      9.21139  2.09622e-06  1.49355e-06  0.000598767 
         -50      9.30471   2.0551e-06  1.46208e-06  0.000598776 
         -50      9.39841  2.01393e-06  1.43212e-06  0.000598783 
         -50      9.49267  1.97396e-06   1.4028e-06   0.00059879 
         -50      9.58739  1.93553e-06  1.37377e-06  0.000598796 
         -50      9.68251  1.89842e-06  1.34527e-06  0.000598801 
         -50      9.77817  1.86238e-06  1.31745e-06  0.000598806 
         -50      9.87422   1.8273e-06  1.29046e-06  0.000598809 
         -50      9.97083  1.79302e-06  1.26435e-06  0.000598812 
         -50      10.0678   1.7595e-06  1.23919e-06  0.000598815 
         -50      10.1654  1.72661e-06  1.21494e-06  0.000598816 
         -50      10.2633  1.69436e-06  1.19162e-06  0.000598817 
         -50      10.3618  1.66267e-06  1.16913e-06  0.000598818 
         -50      10.4607  1.63153e-06  1.14743e-06  0.000598818 
         -50      10.5601  1.60097e-06  1.12645e-06  0.000598817 
         -50        10.66  1.57093e-06  1.10607e-06  0.000598816 
         -50      10.7603  1.54143e-06  1.08623e-06  0.000598814 
         -50      10.8611  1.51243e-06  1.06683e-06  0.000598811 
         -50      10.9623  1.48395e-06  1.04781e-06  0.000598808 
         -50      11.0641  1.45594e-06  1.02907e-06  0.000598805 
         -50      11.1663  1.42839e-06  1.01057e-06  0.000598801 
         -50       11.269   1.4013e-06  9.92304e-07  0.000598796 
         -50      11.3721  1.37461e-06  9.74207e-07  0.000598791 
         -50      11.4757  1.34831e-06  9.56312e-07  0.000598785 
         -50      11.5798  1.32236e-06  9.38607e-07  0.000598778 
         -50      11.6844  1.29678e-06  9.21156e-07  0.000598771 
         -50      11.7894  1.27153e-06  9.03981e-07  0.000598763 
         -50       11.895  1.24665e-06  8.87159e-07  0.000598754 
         -50      12.0009  1.22222e-06  8.70772e-07  0.000598745 
         -50      12.1073  1.19831e-06  8.54866e-07  0.000598735 
         -50      12.2142   1.1751e-06  8.39533e-07  0.000598724 
         -50      12.3216  1.15279e-06    8.248e-07  0.000598713 
         -50      12.4294  1.13172e-06  8.10715e-07    0.0005987 
         -50      12.5378  1.11228e-06  7.97245e-07  0.000598687 
         -50      12.6465   1.0941e-06  7.82135e-07  0.000598673 
         -50      12.7558   1.0756e-06  7.60823e-07   0.00059866 
         -50      12.8656  1.05877e-06  7.49999e-07  0.000598646 
         -50      12.9757  1.04128e-06  7.37244e-07  0.000598632 
         -50      13.0864   1.0219e-06  7.27423e-07  0.000598618 
         -50      13.1975  1.00252e-06  7.16867e-07  0.000598603 
         -50      13.3092  9.83247e-07  7.05816e-07  0.000598587 
         -50      13.4212  9.64245e-07  6.94494e-07   0.00059857 
         -50      13.5338  9.45558e-07  6.83046e-07  0.000598553 
         -50      13.6468  9.27254e-07  6.71607e-07  0.000598535 
         -50      13.7603  9.09371e-07  6.60276e-07  0.000598516 
         -50      13.8743   8.9189e-07  6.49097e-07  0.000598497 
         -50      13.9886  8.74834e-07  6.38127e-07  0.000598477 
         -50      14.1036   8.5816e-07  6.27367e-07  0.000598456 
         -50      14.2189  8.41877e-07  6.16836e-07  0.000598435 
         -50      14.3348  8.25939e-07  6.06513e-07  0.000598414 
         -50       14.451  8.10353e-07  5.96397e-07  0.000598392 
         -50      14.5678  7.95083e-07  5.86456e-07  0.000598369 
         -50      14.6851  7.80134e-07  5.76679e-07  0.000598346 
         -50      14.8028  7.65519e-07  5.67056e-07  0.000598323 
         -50       14.921  7.51225e-07  5.57562e-07  0.000598299 
         -50      15.0396  7.37291e-07  5.48204e-07  0.000598274 
         -50      15.1588  7.23716e-07  5.38971e-07  0.000598249 
         -50      15.2783  7.10548e-07  5.29887e-07  0.000598223 
         -50      15.3984  6.97789e-07  5.20955e-07  0.000598197 
         -50       15.519  6.85468e-07  5.12208e-07   0.00059817 
         -50        15.64  6.73599e-07  5.03684e-07  0.000598143 
         -50      15.7615   6.6215e-07  4.95403e-07  0.000598115 
         -50      15.8834  6.51093e-07  4.87412e-07  0.000598087 
         -50      16.0058  6.40327e-07  4.79728e-07  0.000598058 
         -50      16.1286  6.29732e-07  4.72385e-07  0.000598028 
         -50       16.252  6.19083e-07  4.65375e-07  0.000597998 
         -50      16.3759  6.08102e-07  4.58685e-07  0.000597966 
         -50      16.5002  5.96407e-07  4.52268e-07  0.000597935 
         -50       16.625  5.83463e-07   4.4602e-07  0.000597902 
         -50      16.7501  5.71471e-07  4.38402e-07   0.00059787 
         -50      16.8759  5.62378e-07  4.29639e-07  0.000597838 
         -50       17.002  5.53485e-07  4.21587e-07  0.000597805 
         -50      17.1287   5.4476e-07  4.14145e-07  0.000597771 
         -50      17.2557  5.36192e-07  4.07227e-07  0.000597737 
         -50      17.3834  5.27739e-07  4.00714e-07  0.000597702 
         -50      17.5115  5.19377e-07  3.94503e-07  0.000597666 
         -50      17.6399  5.11083e-07  3.88493e-07   0.00059763 
         -50       17.769   5.0282e-07  3.82576e-07  0.000597594 
         -50      17.8984   4.9458e-07  3.76672e-07  0.000597557 
         -50      18.0284  4.86338e-07  3.70699e-07   0.00059752 
         -50      18.1587  4.78105e-07   3.6461e-07  0.000597482 
         -50      18.2896  4.69874e-07  3.58357e-07  0.000597444 
         -50       18.421  4.61669e-07  3.51928e-07  0.000597405 
         -50      18.5528  4.53523e-07  3.45332e-07  0.000597367 
         -50      18.6851  4.45462e-07  3.38584e-07  0.000597327 
         -50      18.8178  4.37544e-07   3.3174e-07  0.000597287 
         -50      18.9511  4.29812e-07  3.24853e-07  0.000597247 
         -50      19.0847  4.22336e-07  3.18013e-07  0.000597206 
         -50      19.2189  4.15166e-07  3.11298e-07  0.000597164 
         -50      19.3535  4.08375e-07  3.04817e-07  0.000597122 
         -50      19.4886  4.02005e-07  2.98656e-07  0.000597079 
         -50      19.6242  3.96106e-07  2.92911e-07  0.000597036 
         -50      19.7602  3.90711e-07  2.87657e-07  0.000596991 
         -50      19.8968  3.85813e-07  2.82935e-07  0.000596946 
         -50      20.0337  3.81392e-07  2.78761e-07    0.0005969 
         -50      20.1712  3.77374e-07  2.75084e-07  0.000596853 
         -50      20.3091  3.71985e-07  2.71662e-07  0.000596806 
         -50      20.4475   3.6178e-07  2.67417e-07  0.000596762 
         -50      20.5864  3.52923e-07  2.62499e-07  0.000596718 
         -50      20.7257  3.45564e-07  2.57034e-07  0.000596672 
         -50      20.8655  3.39708e-07  2.51145e-07  0.000596626 
         -50      21.0058   3.3522e-07  2.44976e-07  0.000596579 
         -50      21.1465   3.3176e-07   2.3866e-07   0.00059653 
         -50      21.2877  3.26236e-07  2.34243e-07  0.000596481 
         -50      21.4294  3.20064e-07  2.32591e-07  0.000596433 
         -50      21.5716  3.16333e-07  2.30174e-07  0.000596383 
         -50      21.7142  3.13721e-07  2.26128e-07  0.000596332 
         -50      21.8573  3.11092e-07  2.20136e-07   0.00059628 
         -50      22.0008  3.06683e-07  2.13453e-07  0.000596229 
         -50      22.1449  3.00521e-07  2.09429e-07  0.000596178 
         -50      22.2893  2.95039e-07  2.06374e-07  0.000596126 
         -50      22.4344  2.90102e-07     2.04e-07  0.000596074 
         -50      22.5797   2.8559e-07   2.0203e-07  0.000596021 
         -50      22.7257   2.8137e-07  2.00201e-07  0.000595968 
         -50      22.8721  2.77334e-07  1.98294e-07  0.000595914 
         -50      23.0189   2.7339e-07  1.96135e-07   0.00059586 
         -50      23.1663  2.69456e-07  1.93598e-07  0.000595806 
         -50       23.314  2.65487e-07  1.90628e-07  0.000595751 
         -50      23.4623   2.6145e-07  1.87219e-07  0.000595696 
         -50       23.611  2.57349e-07  1.83432e-07   0.00059564 
         -50      23.7602  2.53201e-07  1.79369e-07  0.000595584 
         -50        23.91  2.49051e-07  1.75175e-07  0.000595527 
         -50        24.06  2.44961e-07   1.7102e-07   0.00059547 
         -50      24.2107  2.40989e-07  1.67063e-07  0.000595413 
         -50      24.3617   2.3721e-07  1.63445e-07  0.000595355 
         -50      24.5133  2.33672e-07  1.60238e-07  0.000595297 
         -50      24.6653  2.30413e-07  1.57424e-07  0.000595238 
         -50      24.8178  2.27422e-07  1.54832e-07  0.000595179 
         -50      24.9708  2.24635e-07  1.52099e-07  0.000595119 
         -50      25.1242  2.21914e-07   1.4861e-07  0.000595059 
         -50      25.2781  2.19011e-07  1.43419e-07  0.000594999 
         -50      25.4324  2.15564e-07  1.35199e-07  0.000594938 
         -50      25.5873  2.10614e-07  1.37888e-07  0.000594877 
         -50      25.7426  2.05978e-07  1.40256e-07  0.000594815 
         -50      25.8984  2.01845e-07   1.4073e-07  0.000594753 
         -50      26.0546  1.98286e-07  1.39246e-07  0.000594691 
         -50      26.2114  1.95288e-07  1.36005e-07  0.000594628 
         -50      26.3686  1.92747e-07  1.31454e-07  0.000594565 
         -50      26.5262  1.90462e-07  1.26226e-07  0.000594502 
         -50      26.6844  1.88162e-07  1.21039e-07  0.000594437 
         -50      26.8429  1.85583e-07  1.16604e-07  0.000594373 
         -50       27.002  1.82547e-07  1.13448e-07  0.000594308 
         -50      27.1615  1.79111e-07  1.11751e-07  0.000594243 
         -50      27.3216  1.75711e-07  1.11105e-07  0.000594177 
         -50      27.4821  1.73397e-07  1.10265e-07  0.000594112 
         -50       27.643   1.7165e-07  1.07996e-07  0.000594045 
         -50      27.8044  1.69331e-07  1.05874e-07  0.000593978 
         -50      27.9663  1.67062e-07  1.03966e-07  0.000593911 
         -50      28.1287  1.64819e-07  1.02208e-07  0.000593844 
         -50      28.2914  1.62594e-07  1.00551e-07  0.000593776 
         -50      28.4548  1.60372e-07  9.89512e-08  0.000593708 
         -50      28.6185   1.5815e-07  9.73749e-08   0.00059364 
         -50      28.7828  1.55923e-07  9.57924e-08  0.000593571 
         -50      28.9475  1.53691e-07  9.41845e-08  0.000593502 
         -50      29.1126  1.51459e-07  9.25382e-08  0.000593433 
         -50      29.2784  1.49227e-07  9.08423e-08  0.000593363 
         -50      29.4444  1.47004e-07  8.90965e-08  0.000593293 
         -50       29.611  1.44793e-07  8.72992e-08  0.000593222 
         -50       29.778  1.42605e-07  8.54587e-08  0.000593151 
         -50      29.9456  1.40444e-07   8.3581e-08   0.00059308 
         -50      30.1137  1.38319e-07  8.16794e-08  0.000593009 
         -50      30.2821  1.36238e-07  7.97693e-08  0.000592937 
         -50      30.4511  1.34206e-07  7.78634e-08  0.000592864 
         -50      30.6204   1.3223e-07  7.59817e-08  0.000592791 
         -50      30.7903  1.30313e-07  7.41383e-08  0.000592718 
         -50      30.9606  1.28459e-07  7.23535e-08  0.000592645 
         -50      31.1315  1.26667e-07  7.06407e-08  0.000592571 
         -50      31.3028  1.24938e-07  6.90168e-08  0.000592496 
         -50      31.4745  1.23271e-07  6.74962e-08  0.000592422 
         -50      31.6468  1.21658e-07  6.60872e-08  0.000592347 
         -50      31.8194  1.20096e-07     6.48e-08  0.000592271 
         -50      31.9926  1.18573e-07  6.36366e-08  0.000592196 
         -50      32.1662  1.17081e-07  6.25989e-08   0.00059212 
         -50      32.3404  1.15604e-07  6.16805e-08  0.000592044 
         -50      32.5149   1.1413e-07   6.0873e-08  0.000591967 
         -50        32.69  1.12641e-07  6.01593e-08   0.00059189 
         -50      32.8655   1.1112e-07  5.95178e-08  0.000591813 
         -50      33.0414  1.09549e-07  5.89203e-08  0.000591736 
         -50       33.218  1.07905e-07  5.83296e-08  0.000591658 
         -50      33.3948  1.06172e-07  5.77027e-08  0.000591581 
         -50      33.5723  1.04325e-07  5.69865e-08  0.000591503 
         -50        33.75  1.02348e-07  5.61215e-08  0.000591424 
         -50      33.9284  1.00219e-07  5.50367e-08  0.000591346 
         -50      34.1073  9.79244e-08  5.36536e-08  0.000591267 
         -50      34.2865  9.54507e-08  5.18848e-08  0.000591188 
         -50      34.4663  9.27841e-08  4.96287e-08  0.000591108 
         -50      34.6465  8.99227e-08    4.678e-08  0.000591029 
         -50      34.8272  8.68615e-08  4.32143e-08  0.000590949 
         -50      35.0083  8.57688e-08  4.16528e-08  0.000590868 
         -50        35.19  8.59584e-08  4.20662e-08  0.000590787 
         -50      35.3721  8.56206e-08  4.27319e-08  0.000590705 
         -50      35.5546  8.49027e-08  4.35818e-08  0.000590624 
         -50      35.7377   8.5382e-08  4.28378e-08  0.000590541 
         -50      35.9211  8.54317e-08  4.20841e-08  0.000590459 
         -50      36.1052  8.52164e-08  4.12805e-08  0.000590376 
         -50      36.2895  8.48752e-08  4.04017e-08  0.000590293 
         -50      36.4745  8.45218e-08  3.94306e-08  0.000590209 
         -50      36.6598  8.42481e-08  3.83621e-08  0.000590126 
         -50      36.8457  8.39531e-08  3.72731e-08  0.000590042 
         -50      37.0321  8.09488e-08  3.73866e-08  0.000589959 
         -50      37.2188  7.81785e-08  3.73495e-08  0.000589876 
         -50      37.4062  7.56405e-08  3.71787e-08  0.000589792 
         -50      37.5938  7.33352e-08  3.68919e-08  0.000589709 
         -50      37.7821  7.12504e-08  3.65065e-08  0.000589625 
         -50      37.9707  6.93765e-08   3.6041e-08   0.00058954 
         -50      38.1599  6.76942e-08   3.5512e-08  0.000589456 
         -50      38.3496  6.61861e-08  3.49368e-08  0.000589371 
         -50      38.5396  6.48322e-08  3.43318e-08  0.000589286 
         -50      38.7302  6.36083e-08  3.37105e-08    0.0005892 
         -50      38.9211  6.24937e-08  3.30873e-08  0.000589114 
         -50      39.1127   6.1464e-08  3.24727e-08  0.000589028 
         -50      39.3046   6.0499e-08  3.18777e-08  0.000588942 
         -50      39.4971  5.95764e-08  3.13091e-08  0.000588855 
         -50      39.6899  5.86788e-08  3.07738e-08  0.000588768 
         -50      39.8833  5.77877e-08  3.02749e-08  0.000588681 
         -50      40.0772  5.68894e-08  2.98146e-08  0.000588594 
         -50      40.2714  5.59729e-08   2.9393e-08  0.000588506 
         -50      40.4663  5.50278e-08  2.90073e-08  0.000588418 
         -50      40.6615  5.40501e-08  2.86543e-08   0.00058833 
         -50      40.8573  5.30356e-08  2.83277e-08  0.000588242 
         -50      41.0534  5.19866e-08  2.80212e-08  0.000588153 
         -50      41.2501  5.09052e-08   2.7726e-08  0.000588064 
         -50      41.4473  4.97988e-08  2.74336e-08  0.000587975 
         -50      41.6448  4.86776e-08  2.71348e-08  0.000587886 
         -50      41.8429  4.75513e-08  2.68201e-08  0.000587797 
         -50      42.0414   4.6435e-08  2.64813e-08  0.000587708 
         -50      42.2405  4.53414e-08  2.61106e-08  0.000587618 
         -50      42.4399  4.42873e-08   2.5703e-08  0.000587529 
         -50      42.6399  4.32857e-08  2.52551e-08  0.000587439 
         -50      42.8404   4.2351e-08  2.47675e-08  0.000587349 
         -50      43.0412  4.14951e-08  2.42457e-08  0.000587258 
         -50      43.2426  4.07245e-08   2.3699e-08  0.000587168 
         -50      43.4444  4.00432e-08  2.31448e-08  0.000587078 
         -50      43.6467  3.94472e-08  2.26061e-08  0.000586987 
         -50      43.8494  3.89263e-08  2.21167e-08  0.000586896 
         -50      44.0527  3.84589e-08  2.17186e-08  0.000586805 
         -50      44.2563  3.79983e-08  2.14597e-08  0.000586714 
         -50      44.4606  3.68663e-08  2.11169e-08  0.000586622 
         -50      44.6653  3.57713e-08  2.09656e-08   0.00058653 
         -50      44.8704  3.47282e-08  2.09069e-08  0.000586438 
         -50       45.076   3.3745e-08  2.08625e-08  0.000586346 
         -50       45.282  3.28283e-08  2.07745e-08  0.000586254 
         -50      45.4886  3.19782e-08  2.06051e-08  0.000586162 
         -50      45.6955  3.11943e-08  2.03368e-08   0.00058607 
         -50       45.903  3.04707e-08  1.99716e-08  0.000585977 
         -50      46.1111  2.98012e-08  1.95324e-08  0.000585885 
         -50      46.3194  2.91775e-08  1.90625e-08  0.000585792 
         -50      46.5283  2.85881e-08  1.86245e-08  0.000585699 
         -50      46.7376  2.80229e-08  1.83036e-08  0.000585606 
         -50      46.9475  2.74689e-08  1.82048e-08  0.000585513 
         -50      47.1577  2.69151e-08  1.84557e-08   0.00058542 
         -50      47.3685  2.60175e-08  1.93491e-08  0.000585326 
         -50      47.5798  2.47995e-08  2.03086e-08  0.000585233 
         -50      47.7914  2.38897e-08  2.08174e-08   0.00058514 
         -50      48.0037   2.3229e-08  2.09648e-08  0.000585046 