Variables = x, y, u, v, p

Zone, I=20800, F=POINT
         -50            0            0            0   0.00103379 
         -50     0.000234  2.81961e-08  6.30009e-11   0.00103379 
         -50     0.000939  1.11686e-07  3.05598e-10   0.00103379 
         -50     0.002113  2.45906e-07  8.82411e-10   0.00103379 
         -50     0.003759  4.24154e-07    2.045e-09   0.00103379 
         -50     0.005872  6.36407e-07  4.12274e-09   0.00103379 
         -50     0.008457  8.71555e-07  7.52738e-09   0.00103379 
         -50      0.01151  1.11584e-06  1.27295e-08   0.00103379 
         -50     0.015036  1.35487e-06  2.02841e-08   0.00103379 
         -50     0.019031  1.57257e-06   3.0806e-08   0.00103379 
         -50     0.023493  1.75258e-06  4.49924e-08   0.00103379 
         -50     0.028429  1.87864e-06  6.36558e-08   0.00103379 
         -50     0.033831  1.93429e-06   8.7623e-08   0.00103379 
         -50     0.039706   1.9041e-06  1.17808e-07   0.00103379 
         -50     0.046047  1.77392e-06  1.55019e-07    0.0010338 
         -50     0.052863  1.53122e-06  2.00047e-07    0.0010338 
         -50      0.06015  1.16617e-06  2.53472e-07    0.0010338 
         -50       0.0679  6.72351e-07  3.15805e-07    0.0010338 
         -50     0.076126  4.47513e-08  3.88148e-07    0.0010338 
         -50     0.084816 -7.18186e-07  4.72655e-07    0.0010338 
         -50     0.093982 -1.61444e-06   5.6569e-07    0.0010338 
         -50     0.103611 -2.63778e-06  6.67765e-07    0.0010338 
         -50     0.113718 -3.78226e-06  7.82346e-07    0.0010338 
         -50     0.124286 -5.03544e-06  9.10238e-07    0.0010338 
         -50     0.135333 -6.38624e-06  1.05068e-06    0.0010338 
         -50      0.14685  -7.8182e-06  1.20137e-06   0.00103381 
         -50     0.158827 -9.31299e-06  1.35991e-06   0.00103381 
         -50     0.171284  -1.0855e-05  1.52546e-06   0.00103381 
         -50     0.184201 -1.24232e-05  1.69891e-06   0.00103381 
         -50     0.197599 -1.40019e-05   1.8841e-06   0.00103381 
         -50     0.211455 -1.55709e-05  2.08524e-06   0.00103381 
         -50     0.225792 -1.71161e-05  2.30365e-06   0.00103381 
         -50       0.2406 -1.86203e-05  2.52765e-06   0.00103381 
         -50     0.255865 -2.00615e-05  2.75382e-06   0.00103381 
         -50     0.271613 -2.14438e-05  3.06012e-06   0.00103381 
         -50     0.287818 -2.27528e-05  3.39369e-06   0.00103381 
         -50     0.304506 -2.39639e-05  3.72083e-06   0.00103381 
         -50      0.32165 -2.50556e-05  4.01709e-06   0.00103381 
         -50     0.339278  -2.6017e-05  4.26927e-06    0.0010338 
         -50     0.357377 -2.68415e-05  4.47293e-06    0.0010338 
         -50      0.37593 -2.75288e-05    4.632e-06    0.0010338 
         -50     0.394968  -2.8085e-05  4.75744e-06   0.00103381 
         -50     0.414461 -2.85182e-05  4.86452e-06   0.00103381 
         -50      0.43444 -2.88397e-05  4.97202e-06   0.00103382 
         -50     0.454872 -2.90603e-05  5.10039e-06   0.00103383 
         -50     0.475791 -2.91907e-05  5.27262e-06   0.00103383 
         -50     0.497163 -2.92398e-05  5.51524e-06   0.00103383 
         -50     0.519021 -2.92151e-05  5.86434e-06   0.00103383 
         -50      0.54135 -2.91244e-05  6.37316e-06   0.00103382 
         -50     0.564131 -2.89802e-05  7.12608e-06   0.00103381 
         -50       0.5874 -2.88051e-05  8.26209e-06   0.00103379 
         -50     0.611121 -2.86209e-05    9.808e-06   0.00103376 
         -50      0.63533 -2.81891e-05  9.72882e-06   0.00103372 
         -50      0.65999 -2.76964e-05  9.60435e-06   0.00103371 
         -50     0.685139 -2.71656e-05  9.47064e-06   0.00103371 
         -50     0.710759 -2.66154e-05  9.35783e-06   0.00103374 
         -50     0.736828 -2.60593e-05  9.28954e-06   0.00103377 
         -50     0.763387 -2.55042e-05  9.28271e-06    0.0010338 
         -50     0.790396 -2.49538e-05  9.34791e-06   0.00103384 
         -50     0.817896 -2.44059e-05  9.48968e-06   0.00103388 
         -50     0.845843  -2.3856e-05  9.70646e-06   0.00103391 
         -50     0.874283  -2.3295e-05  9.99217e-06   0.00103394 
         -50      0.90317 -2.27134e-05  1.03356e-05   0.00103396 
         -50     0.932551 -2.20988e-05  1.07233e-05   0.00103397 
         -50     0.962401 -2.14403e-05  1.11384e-05   0.00103397 
         -50     0.992697 -2.07283e-05  1.15632e-05   0.00103396 
         -50      1.02349 -1.99537e-05  1.19808e-05   0.00103395 
         -50      1.05472 -1.91133e-05  1.23747e-05   0.00103393 
         -50      1.08645 -1.82057e-05  1.27319e-05   0.00103392 
         -50      1.11863 -1.72372e-05  1.30421e-05    0.0010339 
         -50       1.1513 -1.62167e-05  1.33005e-05   0.00103388 
         -50      1.18444 -1.51608e-05  1.35066e-05   0.00103388 
         -50      1.21802 -1.40911e-05  1.36656e-05   0.00103388 
         -50      1.25211   -1.303e-05  1.37876e-05    0.0010339 
         -50      1.28663 -1.20045e-05  1.38861e-05   0.00103393 
         -50      1.32165 -1.10365e-05  1.39767e-05   0.00103397 
         -50      1.35712 -1.01443e-05  1.40733e-05   0.00103402 
         -50      1.39308 -9.33032e-06  1.41846e-05   0.00103407 
         -50      1.42951  -8.5785e-06  1.43071e-05   0.00103413 
         -50      1.46638 -7.84169e-06  1.44181e-05   0.00103416 
         -50      1.50375 -7.02749e-06  1.44656e-05   0.00103417 
         -50      1.54156 -6.28897e-06  1.45717e-05    0.0010342 
         -50      1.57987 -5.56684e-06  1.46692e-05   0.00103425 
         -50      1.61863 -4.85287e-06  1.47482e-05   0.00103429 
         -50      1.65788 -4.14892e-06  1.48094e-05   0.00103434 
         -50      1.69757 -3.45899e-06  1.48532e-05   0.00103439 
         -50      1.73776 -2.78462e-06  1.48802e-05   0.00103443 
         -50      1.77842 -2.12884e-06  1.48911e-05   0.00103448 
         -50      1.81952 -1.49448e-06  1.48864e-05   0.00103453 
         -50      1.86113 -8.82556e-07  1.48668e-05   0.00103459 
         -50      1.90316 -2.95922e-07  1.48329e-05   0.00103464 
         -50      1.94571  2.64736e-07  1.47855e-05   0.00103469 
         -50      1.98869  7.97108e-07  1.47252e-05   0.00103475 
         -50      2.03217  1.30089e-06  1.46528e-05    0.0010348 
         -50      2.07612   1.7747e-06   1.4569e-05   0.00103486 
         -50      2.12051   2.2175e-06  1.44745e-05   0.00103492 
         -50       2.1654  2.62953e-06  1.43701e-05   0.00103498 
         -50      2.21073  3.00989e-06  1.42565e-05   0.00103504 
         -50      2.25656  3.35918e-06  1.41343e-05    0.0010351 
         -50      2.30283  3.67704e-06  1.40045e-05   0.00103516 
         -50       2.3496  3.96439e-06  1.38675e-05   0.00103522 
         -50      2.39685  4.22157e-06  1.37241e-05   0.00103529 
         -50      2.44452  4.44919e-06  1.35751e-05   0.00103535 
         -50      2.49271  4.64856e-06  1.34209e-05   0.00103541 
         -50      2.54132  4.82049e-06  1.32623e-05   0.00103548 
         -50      2.59044  4.96648e-06  1.30996e-05   0.00103554 
         -50         2.64  5.08764e-06  1.29338e-05   0.00103561 
         -50      2.69006  5.18562e-06  1.27649e-05   0.00103567 
         -50      2.74056  5.26178e-06  1.25938e-05   0.00103574 
         -50      2.79156  5.31781e-06  1.24206e-05    0.0010358 
         -50      2.84304  5.35526e-06  1.22458e-05   0.00103587 
         -50      2.89494  5.37573e-06    1.207e-05   0.00103593 
         -50      2.94735  5.38086e-06  1.18931e-05   0.00103599 
         -50       3.0002   5.3722e-06  1.17158e-05   0.00103606 
         -50      3.05355  5.35127e-06   1.1538e-05   0.00103612 
         -50      3.10733  5.31956e-06  1.13601e-05   0.00103618 
         -50      3.16163   5.2784e-06  1.11822e-05   0.00103624 
         -50      3.21639  5.22909e-06  1.10045e-05    0.0010363 
         -50      3.27158   5.1729e-06  1.08273e-05   0.00103636 
         -50      3.32729  5.11081e-06  1.06504e-05   0.00103642 
         -50      3.38342  5.04394e-06  1.04744e-05   0.00103648 
         -50      3.44007  4.97311e-06   1.0299e-05   0.00103653 
         -50      3.49714  4.89929e-06  1.01248e-05   0.00103659 
         -50      3.55472  4.82318e-06  9.95183e-06   0.00103665 
         -50      3.61273  4.74573e-06  9.78056e-06    0.0010367 
         -50      3.67125   4.6677e-06  9.61116e-06   0.00103676 
         -50      3.73025  4.59012e-06  9.44429e-06   0.00103682 
         -50      3.78967  4.51453e-06  9.28329e-06   0.00103687 
         -50      3.84961  4.43853e-06  9.12389e-06   0.00103692 
         -50      3.90996  4.36273e-06  8.96574e-06   0.00103697 
         -50      3.97084  4.28372e-06   8.8096e-06   0.00103702 
         -50      4.03214  4.20389e-06  8.65387e-06   0.00103707 
         -50      4.09395  4.12376e-06  8.49866e-06   0.00103713 
         -50      4.15624  4.04358e-06  8.34448e-06   0.00103717 
         -50      4.21895  3.96369e-06  8.19183e-06   0.00103722 
         -50      4.28217  3.88427e-06  8.04074e-06   0.00103727 
         -50      4.34582  3.80578e-06  7.89168e-06   0.00103732 
         -50      4.40998  3.72839e-06  7.74456e-06   0.00103736 
         -50      4.47457  3.65246e-06  7.59973e-06   0.00103741 
         -50      4.53968  3.57808e-06  7.45698e-06   0.00103745 
         -50      4.60525  3.50542e-06  7.31642e-06   0.00103749 
         -50      4.67125  3.43453e-06   7.1781e-06   0.00103754 
         -50      4.73777  3.36525e-06   7.0417e-06   0.00103758 
         -50       4.8047  3.29748e-06   6.9073e-06   0.00103762 
         -50      4.87216  3.23088e-06  6.77455e-06   0.00103766 
         -50      4.94003  3.16522e-06  6.64349e-06   0.00103769 
         -50      5.00843  3.10005e-06  6.51379e-06   0.00103773 
         -50      5.07724  3.03511e-06  6.38554e-06   0.00103777 
         -50      5.14658  2.97002e-06  6.25847e-06    0.0010378 
         -50      5.21639  2.90469e-06  6.13268e-06   0.00103784 
         -50      5.28661  2.83926e-06   6.0084e-06   0.00103787 
         -50      5.35736  2.77403e-06  5.88566e-06    0.0010379 
         -50      5.42852  2.70999e-06  5.76505e-06   0.00103793 
         -50      5.50021   2.6485e-06  5.64698e-06   0.00103796 
         -50      5.57231  2.59193e-06  5.53246e-06   0.00103799 
         -50      5.64493  2.54342e-06  5.42243e-06   0.00103802 
         -50      5.71803  2.48051e-06  5.30671e-06   0.00103805 
         -50      5.79154  2.42176e-06  5.19586e-06   0.00103807 
         -50      5.86558  2.36649e-06  5.08766e-06    0.0010381 
         -50      5.94003  2.31418e-06  4.98109e-06   0.00103812 
         -50      6.01501  2.26408e-06  4.87547e-06   0.00103815 
         -50       6.0904  2.21562e-06  4.77096e-06   0.00103817 
         -50      6.16632  2.16806e-06  4.66777e-06   0.00103819 
         -50      6.24271  2.12085e-06  4.56652e-06   0.00103821 
         -50       6.3195  2.07357e-06  4.46782e-06   0.00103823 
         -50      6.39683  2.02586e-06  4.37185e-06   0.00103825 
         -50      6.47457   1.9778e-06   4.2787e-06   0.00103827 
         -50      6.55284  1.92971e-06  4.18751e-06   0.00103828 
         -50      6.63152  1.88257e-06  4.09693e-06    0.0010383 
         -50      6.71073  1.83789e-06  4.00423e-06   0.00103831 
         -50      6.79034  1.79294e-06  3.91727e-06   0.00103833 
         -50      6.87049   1.7501e-06  3.83389e-06   0.00103834 
         -50      6.95111   1.7105e-06  3.75075e-06   0.00103835 
         -50      7.03214  1.67328e-06  3.66835e-06   0.00103836 
         -50       7.1137  1.63768e-06  3.58687e-06   0.00103837 
         -50      7.19566  1.60316e-06  3.50666e-06   0.00103838 
         -50      7.27816  1.56923e-06  3.42775e-06   0.00103839 
         -50      7.36106  1.53561e-06  3.35034e-06    0.0010384 
         -50      7.44451  1.50203e-06  3.27435e-06    0.0010384 
         -50      7.52842  1.46841e-06  3.19991e-06   0.00103841 
         -50      7.61273  1.43474e-06  3.12709e-06   0.00103841 
         -50      7.69758  1.40098e-06  3.05585e-06   0.00103841 
         -50      7.78283  1.36724e-06  2.98641e-06   0.00103842 
         -50      7.86862  1.33352e-06  2.91878e-06   0.00103842 
         -50      7.95481  1.29987e-06   2.8533e-06   0.00103842 
         -50      8.04155  1.26617e-06  2.79011e-06   0.00103842 
         -50      8.12868  1.23924e-06  2.72403e-06   0.00103842 
         -50      8.21635  1.21444e-06   2.6592e-06   0.00103841 
         -50      8.30449  1.18955e-06  2.59703e-06   0.00103841 
         -50      8.39303  1.16431e-06  2.53725e-06   0.00103841 
         -50      8.48211  1.13843e-06  2.47938e-06    0.0010384 
         -50      8.57159  1.11177e-06  2.42312e-06    0.0010384 
         -50      8.66161  1.08421e-06  2.36803e-06   0.00103839 
         -50      8.75203  1.05589e-06  2.31391e-06   0.00103838 
         -50      8.84299  1.02708e-06  2.26047e-06   0.00103837 
         -50      8.93443  9.98424e-07  2.20774e-06   0.00103836 
         -50      9.02626  9.70985e-07  2.15591e-06   0.00103835 
         -50      9.11863  9.46286e-07  2.10535e-06   0.00103834 
         -50      9.21139  9.26609e-07  2.05687e-06   0.00103833 
         -50      9.30471  9.15006e-07  2.01151e-06   0.00103832 
         -50      9.39841  8.97046e-07  1.96561e-06   0.00103831 
         -50      9.49267  8.69084e-07  1.91773e-06   0.00103829 
         -50      9.58739  8.45715e-07  1.87192e-06   0.00103828 
         -50      9.68251  8.25733e-07  1.82789e-06   0.00103826 
         -50      9.77817  8.08089e-07   1.7853e-06   0.00103824 
         -50      9.87422  7.91982e-07  1.74399e-06   0.00103822 
         -50      9.97083  7.76733e-07  1.70374e-06   0.00103821 
         -50      10.0678  7.61871e-07  1.66447e-06   0.00103819 
         -50      10.1654  7.47022e-07  1.62603e-06   0.00103817 
         -50      10.2633  7.31986e-07  1.58843e-06   0.00103814 
         -50      10.3618   7.1663e-07  1.55157e-06   0.00103812 
         -50      10.4607  7.00949e-07  1.51549e-06    0.0010381 
         -50      10.5601  6.85023e-07  1.48021e-06   0.00103808 
         -50        10.66  6.68951e-07  1.44572e-06   0.00103805 
         -50      10.7603  6.52933e-07  1.41211e-06   0.00103803 
         -50      10.8611  6.37146e-07  1.37937e-06     0.001038 
         -50      10.9623  6.21829e-07   1.3476e-06   0.00103798 
         -50      11.0641   6.0717e-07  1.31677e-06   0.00103795 
         -50      11.1663  5.93374e-07  1.28695e-06   0.00103792 
         -50       11.269  5.80609e-07  1.25817e-06   0.00103789 
         -50      11.3721   5.6896e-07  1.23039e-06   0.00103787 
         -50      11.4757  5.58493e-07  1.20361e-06   0.00103784 
         -50      11.5798  5.49155e-07  1.17774e-06    0.0010378 
         -50      11.6844  5.40841e-07  1.15274e-06   0.00103777 
         -50      11.7894  5.33312e-07  1.12843e-06   0.00103774 
         -50       11.895  5.26241e-07  1.10467e-06   0.00103771 
         -50      12.0009   5.1918e-07  1.08128e-06   0.00103767 
         -50      12.1073  5.11536e-07  1.05798e-06   0.00103764 
         -50      12.2142  5.02609e-07  1.03448e-06    0.0010376 
         -50      12.3216  4.91536e-07  1.01042e-06   0.00103757 
         -50      12.4294   4.7735e-07  9.85427e-07   0.00103753 
         -50      12.5378  4.58908e-07  9.59008e-07   0.00103749 
         -50      12.6465  4.45842e-07  9.33722e-07   0.00103745 
         -50      12.7558  4.50494e-07  9.10874e-07   0.00103741 
         -50      12.8656  4.26633e-07  8.91004e-07   0.00103737 
         -50      12.9757  4.08822e-07  8.73691e-07   0.00103733 
         -50      13.0864  4.04164e-07  8.56383e-07   0.00103729 
         -50      13.1975  3.97853e-07  8.38551e-07   0.00103725 
         -50      13.3092  3.90785e-07  8.20618e-07   0.00103721 
         -50      13.4212  3.83637e-07  8.02943e-07   0.00103717 
         -50      13.5338  3.76849e-07  7.85724e-07   0.00103713 
         -50      13.6468  3.70702e-07  7.69116e-07   0.00103708 
         -50      13.7603  3.65326e-07  7.53197e-07   0.00103704 
         -50      13.8743  3.60719e-07  7.37947e-07   0.00103699 
         -50      13.9886  3.56804e-07  7.23352e-07   0.00103695 
         -50      14.1036  3.53427e-07  7.09317e-07    0.0010369 
         -50      14.2189  3.50403e-07  6.95773e-07   0.00103685 
         -50      14.3348  3.47522e-07  6.82598e-07    0.0010368 
         -50       14.451  3.44583e-07  6.69713e-07   0.00103675 
         -50      14.5678  3.41401e-07  6.57007e-07    0.0010367 
         -50      14.6851  3.37827e-07  6.44418e-07   0.00103665 
         -50      14.8028  3.33765e-07  6.31904e-07    0.0010366 
         -50       14.921   3.2916e-07  6.19423e-07   0.00103655 
         -50      15.0396  3.24032e-07  6.06999e-07   0.00103649 
         -50      15.1588  3.18442e-07  5.94648e-07   0.00103644 
         -50      15.2783  3.12523e-07  5.82451e-07   0.00103639 
         -50      15.3984  3.06432e-07  5.70474e-07   0.00103633 
         -50       15.519   3.0037e-07  5.58826e-07   0.00103628 
         -50        15.64  2.94547e-07  5.47624e-07   0.00103622 
         -50      15.7615  2.89136e-07   5.3695e-07   0.00103616 
         -50      15.8834  2.84278e-07  5.26895e-07   0.00103611 
         -50      16.0058  2.80004e-07  5.17481e-07   0.00103605 
         -50      16.1286  2.76215e-07  5.08689e-07   0.00103599 
         -50       16.252  2.72602e-07  5.00383e-07   0.00103593 
         -50      16.3759    2.686e-07  4.92324e-07   0.00103587 
         -50      16.5002  2.63311e-07  4.84112e-07   0.00103581 
         -50       16.625  2.55398e-07  4.75129e-07   0.00103575 
         -50      16.7501  2.56579e-07  4.64752e-07   0.00103568 
         -50      16.8759  2.63926e-07  4.55058e-07   0.00103562 
         -50       17.002  2.63074e-07  4.46409e-07   0.00103556 
         -50      17.1287  2.57455e-07  4.38436e-07    0.0010355 
         -50      17.2557  2.49697e-07  4.30891e-07   0.00103543 
         -50      17.3834  2.41695e-07  4.23586e-07   0.00103537 
         -50      17.5115  2.34742e-07  4.16417e-07    0.0010353 
         -50      17.6399    2.296e-07  4.09333e-07   0.00103524 
         -50       17.769  2.26583e-07  4.02308e-07   0.00103517 
         -50      17.8984  2.25667e-07  3.95369e-07    0.0010351 
         -50      18.0284  2.26554e-07  3.88536e-07   0.00103503 
         -50      18.1587  2.28756e-07  3.81862e-07   0.00103496 
         -50      18.2896  2.31675e-07  3.75376e-07   0.00103489 
         -50       18.421  2.34656e-07  3.69117e-07   0.00103482 
         -50      18.5528  2.37059e-07  3.63108e-07   0.00103475 
         -50      18.6851  2.38313e-07   3.5734e-07   0.00103468 
         -50      18.8178  2.37958e-07  3.51804e-07    0.0010346 
         -50      18.9511  2.35683e-07  3.46447e-07   0.00103453 
         -50      19.0847  2.31361e-07  3.41217e-07   0.00103446 
         -50      19.2189  2.25055e-07  3.36025e-07   0.00103438 
         -50      19.3535   2.1705e-07  3.30787e-07   0.00103431 
         -50      19.4886   2.0781e-07  3.25399e-07   0.00103423 
         -50      19.6242  1.98009e-07  3.19776e-07   0.00103416 
         -50      19.7602  1.88477e-07  3.13854e-07   0.00103408 
         -50      19.8968  1.80137e-07  3.07589e-07     0.001034 
         -50      20.0337  1.73995e-07  3.01013e-07   0.00103392 
         -50      20.1712  1.71016e-07  2.94217e-07   0.00103385 
         -50      20.3091  1.72735e-07  2.88197e-07   0.00103377 
         -50      20.4475  1.78796e-07  2.83534e-07   0.00103368 
         -50      20.5864  1.85081e-07  2.77452e-07    0.0010336 
         -50      20.7257  1.90727e-07  2.71195e-07   0.00103352 
         -50      20.8655   1.9433e-07   2.6634e-07   0.00103344 
         -50      21.0058  1.93803e-07  2.64913e-07   0.00103336 
         -50      21.1465  1.86255e-07  2.69465e-07   0.00103328 
         -50      21.2877  1.64618e-07  2.64652e-07   0.00103319 
         -50      21.4294  1.50135e-07  2.49613e-07    0.0010331 
         -50      21.5716  1.44218e-07  2.44343e-07   0.00103301 
         -50      21.7142  1.38401e-07  2.44439e-07   0.00103293 
         -50      21.8573  1.30356e-07  2.47222e-07   0.00103284 
         -50      22.0008  1.32133e-07  2.49092e-07   0.00103275 
         -50      22.1449  1.52399e-07  2.45959e-07   0.00103266 
         -50      22.2893  1.66396e-07  2.42156e-07   0.00103258 
         -50      22.4344  1.74096e-07  2.37846e-07   0.00103249 
         -50      22.5797  1.75966e-07  2.33297e-07    0.0010324 
         -50      22.7257  1.72886e-07  2.28802e-07    0.0010323 
         -50      22.8721  1.65994e-07  2.24654e-07   0.00103221 
         -50      23.0189  1.56594e-07  2.21092e-07   0.00103212 
         -50      23.1663     1.46e-07  2.18268e-07   0.00103203 
         -50       23.314  1.35505e-07  2.16236e-07   0.00103193 
         -50      23.4623  1.26223e-07  2.14933e-07   0.00103184 
         -50       23.611  1.19086e-07  2.14188e-07   0.00103174 
         -50      23.7602  1.14727e-07  2.13727e-07   0.00103165 
         -50        23.91  1.13483e-07  2.13206e-07   0.00103155 
         -50        24.06   1.1534e-07  2.12248e-07   0.00103146 
         -50      24.2107  1.19937e-07  2.10499e-07   0.00103136 
         -50      24.3617  1.26566e-07  2.07698e-07   0.00103126 
         -50      24.5133  1.34224e-07  2.03761e-07   0.00103116 
         -50      24.6653  1.41629e-07  1.98897e-07   0.00103106 
         -50      24.8178  1.47338e-07  1.93709e-07   0.00103096 
         -50      24.9708  1.49801e-07  1.89361e-07   0.00103086 
         -50      25.1242  1.47514e-07  1.87726e-07   0.00103076 
         -50      25.2781  1.39157e-07  1.91572e-07   0.00103066 
         -50      25.4324   1.2379e-07   2.0476e-07   0.00103055 
         -50      25.5873  9.99558e-08  1.92163e-07   0.00103045 
         -50      25.7426  9.28542e-08  1.81804e-07   0.00103035 
         -50      25.8984  9.74841e-08  1.75445e-07   0.00103024 
         -50      26.0546  1.08265e-07  1.71828e-07   0.00103014 
         -50      26.2114  1.20702e-07  1.69949e-07   0.00103003 
         -50      26.3686  1.31536e-07  1.69114e-07   0.00102992 
         -50      26.5262  1.38802e-07  1.68914e-07   0.00102981 
         -50      26.6844  1.41713e-07  1.69147e-07   0.00102971 
         -50      26.8429  1.40316e-07  1.69666e-07    0.0010296 
         -50       27.002  1.35013e-07  1.70165e-07   0.00102949 
         -50      27.1615   1.2587e-07  1.69876e-07   0.00102938 
         -50      27.3216  1.11677e-07  1.67198e-07   0.00102927 
         -50      27.4821  8.88562e-08  1.59237e-07   0.00102916 
         -50       27.643   8.5577e-08  1.56418e-07   0.00102905 
         -50      27.8044   9.5328e-08  1.58356e-07   0.00102893 
         -50      27.9663  1.01537e-07  1.58741e-07   0.00102882 
         -50      28.1287  1.04918e-07  1.57928e-07   0.00102871 
         -50      28.2914  1.06095e-07  1.56228e-07   0.00102859 
         -50      28.4548  1.05629e-07  1.53908e-07   0.00102848 
         -50      28.6185   1.0401e-07  1.51199e-07   0.00102836 
         -50      28.7828   1.0166e-07  1.48289e-07   0.00102825 
         -50      28.9475  9.89387e-08   1.4534e-07   0.00102813 
         -50      29.1126  9.61439e-08  1.42479e-07   0.00102801 
         -50      29.2784  9.35091e-08    1.398e-07    0.0010279 
         -50      29.4444  9.12195e-08  1.37377e-07   0.00102778 
         -50       29.611  8.93999e-08  1.35253e-07   0.00102766 
         -50       29.778  8.81325e-08  1.33457e-07   0.00102754 
         -50      29.9456  8.74495e-08  1.31993e-07   0.00102742 
         -50      30.1137  8.73448e-08  1.30853e-07    0.0010273 
         -50      30.2821   8.7774e-08  1.30012e-07   0.00102718 
         -50      30.4511  8.86617e-08  1.29435e-07   0.00102706 
         -50      30.6204  8.99036e-08  1.29078e-07   0.00102694 
         -50      30.7903  9.13768e-08   1.2889e-07   0.00102681 
         -50      30.9606  9.29381e-08  1.28816e-07   0.00102669 
         -50      31.1315  9.44386e-08  1.28798e-07   0.00102657 
         -50      31.3028  9.57217e-08  1.28778e-07   0.00102644 
         -50      31.4745  9.66343e-08  1.28702e-07   0.00102632 
         -50      31.6468  9.70348e-08  1.28519e-07   0.00102619 
         -50      31.8194  9.67967e-08  1.28183e-07   0.00102607 
         -50      31.9926  9.58181e-08  1.27656e-07   0.00102594 
         -50      32.1662  9.40321e-08  1.26912e-07   0.00102581 
         -50      32.3404  9.14084e-08  1.25932e-07   0.00102569 
         -50      32.5149  8.79736e-08  1.24714e-07   0.00102556 
         -50        32.69  8.38043e-08  1.23266e-07   0.00102543 
         -50      32.8655   7.9054e-08  1.21613e-07    0.0010253 
         -50      33.0414  7.39574e-08  1.19798e-07   0.00102517 
         -50       33.218  6.88265e-08  1.17875e-07   0.00102504 
         -50      33.3948  6.40899e-08  1.15922e-07   0.00102491 
         -50      33.5723  6.02736e-08  1.14028e-07   0.00102478 
         -50        33.75  5.80409e-08  1.12308e-07   0.00102465 
         -50      33.9284  5.81828e-08  1.10888e-07   0.00102451 
         -50      34.1073  6.16472e-08  1.09917e-07   0.00102438 
         -50      34.2865  6.95346e-08   1.0956e-07   0.00102424 
         -50      34.4663  8.31434e-08  1.09997e-07   0.00102411 
         -50      34.6465  1.03928e-07  1.11426e-07   0.00102397 
         -50      34.8272  1.33607e-07  1.14061e-07   0.00102383 
         -50      35.0083  1.41064e-07  1.15345e-07    0.0010237 
         -50        35.19  1.23834e-07  1.14916e-07   0.00102356 
         -50      35.3721  1.00479e-07  1.14547e-07   0.00102343 
         -50      35.5546  6.85249e-08  1.12869e-07   0.00102329 
         -50      35.7377  4.46526e-08  1.05066e-07   0.00102316 
         -50      35.9211  3.27655e-08  9.91848e-08   0.00102302 
         -50      36.1052  2.99861e-08  9.51085e-08   0.00102288 
         -50      36.2895  3.38247e-08  9.27336e-08   0.00102275 
         -50      36.4745  4.21285e-08  9.19454e-08   0.00102261 
         -50      36.6598  5.30424e-08  9.26356e-08   0.00102247 
         -50      36.8457  6.49189e-08  9.45712e-08   0.00102234 
         -50      37.0321  7.45819e-08  9.46447e-08   0.00102219 
         -50      37.2188  8.29279e-08  9.42579e-08   0.00102205 
         -50      37.4062  8.93424e-08  9.35379e-08   0.00102191 
         -50      37.5938  9.34469e-08  9.25951e-08   0.00102176 
         -50      37.7821  9.51002e-08  9.15204e-08   0.00102162 
         -50      37.9707  9.43366e-08  9.03922e-08   0.00102148 
         -50      38.1599  9.13407e-08  8.92709e-08   0.00102133 
         -50      38.3496  8.64143e-08  8.82068e-08   0.00102118 
         -50      38.5396  7.99496e-08  8.72378e-08   0.00102104 
         -50      38.7302  7.23775e-08   8.6389e-08   0.00102089 
         -50      38.9211  6.41781e-08  8.56789e-08   0.00102075 
         -50      39.1127  5.58093e-08  8.51149e-08    0.0010206 
         -50      39.3046  4.77351e-08  8.46995e-08   0.00102046 
         -50      39.4971  4.03536e-08   8.4427e-08   0.00102031 
         -50      39.6899  3.40301e-08  8.42875e-08   0.00102016 
         -50      39.8833   2.9037e-08   8.4266e-08   0.00102002 
         -50      40.0772  2.55803e-08  8.43445e-08   0.00101987 
         -50      40.2714  2.37711e-08  8.45015e-08   0.00101972 
         -50      40.4663  2.36224e-08  8.47142e-08   0.00101957 
         -50      40.6615  2.50559e-08  8.49573e-08   0.00101943 
         -50      40.8573  2.79036e-08  8.52056e-08   0.00101928 
         -50      41.0534  3.19071e-08  8.54324e-08   0.00101913 
         -50      41.2501  3.67461e-08  8.56118e-08   0.00101898 
         -50      41.4473  4.20351e-08  8.57173e-08   0.00101883 
         -50      41.6448  4.73514e-08  8.57228e-08   0.00101868 
         -50      41.8429  5.22759e-08  8.56028e-08   0.00101853 
         -50      42.0414  5.63949e-08   8.5332e-08   0.00101838 
         -50      42.2405  5.93658e-08  8.48847e-08   0.00101823 
         -50      42.4399  6.09347e-08   8.4236e-08   0.00101807 
         -50      42.6399   6.1001e-08  8.33587e-08   0.00101792 
         -50      42.8404  5.96606e-08  8.22255e-08   0.00101777 
         -50      43.0412  5.72738e-08  8.08083e-08   0.00101762 
         -50      43.2426  5.45215e-08  7.90723e-08   0.00101746 
         -50      43.4444   5.2492e-08   7.6984e-08   0.00101731 
         -50      43.6467  5.27472e-08  7.44987e-08   0.00101715 
         -50      43.8494  5.74179e-08  7.15724e-08     0.001017 
         -50      44.0527  6.93081e-08  6.81445e-08   0.00101685 
         -50      44.2563  9.11214e-08  6.43133e-08   0.00101669 
         -50      44.4606  8.27481e-08  6.67139e-08   0.00101654 
         -50      44.6653  7.42178e-08  6.83625e-08   0.00101638 
         -50      44.8704   6.5876e-08  6.92928e-08   0.00101623 
         -50       45.076  5.81287e-08  6.95237e-08   0.00101607 
         -50       45.282  5.14313e-08  6.90736e-08   0.00101592 
         -50      45.4886  4.61809e-08  6.79806e-08   0.00101576 
         -50      45.6955  4.26954e-08  6.63241e-08    0.0010156 
         -50       45.903  4.11163e-08  6.42381e-08   0.00101545 
         -50      46.1111  4.13632e-08  6.19398e-08   0.00101529 
         -50      46.3194  4.30485e-08  5.97474e-08   0.00101513 
         -50      46.5283  4.54136e-08  5.80957e-08   0.00101498 
         -50      46.7376  4.72423e-08  5.75702e-08   0.00101482 
         -50      46.9475   4.6791e-08  5.89207e-08   0.00101466 
         -50      47.1577  4.17008e-08  6.30868e-08    0.0010145 
         -50      47.3685  3.44598e-08  6.40983e-08   0.00101434 
         -50      47.5798  3.49709e-08  5.64091e-08   0.00101419 
         -50      47.7914  3.67739e-08  5.11366e-08   0.00101403 
         -50      48.0037  3.91029e-08  4.79128e-08   0.00101387 