Variables = x, y, u, v, p

Zone, I=20800, F=POINT
         -50            0            0            0 -0.000391523 
         -50     0.000234  1.07726e-07 -9.77723e-11 -0.000391523 
         -50     0.000939  4.30249e-07  -3.5743e-10 -0.000391523 
         -50     0.002113  9.60566e-07 -6.71201e-10 -0.000391523 
         -50     0.003759  1.68997e-06  -8.5427e-10 -0.000391523 
         -50     0.005872  2.60238e-06 -6.35026e-10 -0.000391522 
         -50     0.008457  3.68253e-06  3.50537e-10 -0.000391522 
         -50      0.01151  4.90798e-06  2.55922e-09 -0.000391522 
         -50     0.015036  6.25705e-06  6.54441e-09 -0.000391521 
         -50     0.019031  7.70202e-06  1.29326e-08 -0.000391521 
         -50     0.023493  9.21427e-06   2.2414e-08  -0.00039152 
         -50     0.028429  1.07668e-05  3.57545e-08 -0.000391519 
         -50     0.033831  1.23272e-05  5.37318e-08 -0.000391519 
         -50     0.039706  1.38677e-05  7.72242e-08 -0.000391518 
         -50     0.046047  1.53571e-05  1.07137e-07 -0.000391517 
         -50     0.052863  1.67699e-05  1.44546e-07 -0.000391516 
         -50      0.06015   1.8079e-05   1.9056e-07 -0.000391515 
         -50       0.0679  1.92601e-05  2.46214e-07 -0.000391514 
         -50     0.076126  2.02954e-05  3.12329e-07 -0.000391512 
         -50     0.084816  2.11676e-05  3.88502e-07 -0.000391511 
         -50     0.093982  2.18656e-05  4.78604e-07 -0.000391509 
         -50     0.103611  2.23812e-05  5.83389e-07 -0.000391508 
         -50     0.113718  2.27118e-05  7.01539e-07 -0.000391506 
         -50     0.124286  2.28582e-05  8.32801e-07 -0.000391504 
         -50     0.135333  2.28258e-05  9.78635e-07 -0.000391502 
         -50      0.14685   2.2624e-05  1.14106e-06   -0.0003915 
         -50     0.158827  2.22658e-05  1.32233e-06 -0.000391497 
         -50     0.171284  2.17665e-05  1.52472e-06 -0.000391495 
         -50     0.184201  2.11449e-05  1.74894e-06 -0.000391492 
         -50     0.197599  2.04195e-05  1.99536e-06  -0.00039149 
         -50     0.211455  1.96122e-05  2.26362e-06 -0.000391488 
         -50     0.225792  1.87429e-05  2.55712e-06 -0.000391485 
         -50       0.2406  1.78343e-05  2.88722e-06 -0.000391481 
         -50     0.255865  1.69097e-05  3.26174e-06 -0.000391478 
         -50     0.271613  1.59986e-05  3.62176e-06 -0.000391478 
         -50     0.287818  1.51221e-05  3.98857e-06 -0.000391476 
         -50     0.304506  1.42914e-05  4.37832e-06 -0.000391473 
         -50      0.32165  1.35209e-05  4.79735e-06 -0.000391469 
         -50     0.339278  1.28227e-05   5.2463e-06 -0.000391466 
         -50     0.357377  1.22105e-05  5.71986e-06 -0.000391465 
         -50      0.37593  1.16972e-05   6.2101e-06 -0.000391465 
         -50     0.394968  1.12933e-05  6.71051e-06 -0.000391467 
         -50     0.414461  1.10094e-05  7.21534e-06 -0.000391471 
         -50      0.43444   1.0853e-05   7.7242e-06 -0.000391476 
         -50     0.454872  1.08297e-05   8.2384e-06 -0.000391481 
         -50     0.475791  1.09416e-05  8.76143e-06 -0.000391485 
         -50     0.497163   1.1187e-05  9.28864e-06 -0.000391487 
         -50     0.519021  1.15608e-05  9.79847e-06 -0.000391486 
         -50      0.54135  1.20527e-05  1.02303e-05 -0.000391481 
         -50     0.564131  1.26476e-05  1.04572e-05 -0.000391471 
         -50       0.5874  1.33268e-05  1.02461e-05 -0.000391455 
         -50     0.611121  1.40692e-05  9.33832e-06 -0.000391428 
         -50      0.63533  1.48147e-05  9.42391e-06 -0.000391361 
         -50      0.65999  1.54493e-05  9.74315e-06 -0.000391322 
         -50     0.685139  1.59683e-05  1.02395e-05 -0.000391306 
         -50     0.710759  1.63671e-05  1.08606e-05 -0.000391308 
         -50     0.736828  1.66433e-05  1.15589e-05 -0.000391323 
         -50     0.763387  1.67971e-05  1.22941e-05 -0.000391349 
         -50     0.790396    1.683e-05  1.30303e-05  -0.00039138 
         -50     0.817896  1.67455e-05  1.37399e-05 -0.000391413 
         -50     0.845843   1.6549e-05  1.43995e-05 -0.000391446 
         -50     0.874283   1.6247e-05  1.49943e-05 -0.000391476 
         -50      0.90317  1.58486e-05  1.55134e-05 -0.000391502 
         -50     0.932551  1.53626e-05  1.59534e-05 -0.000391522 
         -50     0.962401  1.48003e-05  1.63145e-05 -0.000391535 
         -50     0.992697  1.41737e-05  1.66018e-05 -0.000391542 
         -50      1.02349  1.34939e-05  1.68244e-05 -0.000391544 
         -50      1.05472  1.27741e-05  1.69933e-05 -0.000391541 
         -50      1.08645  1.20252e-05  1.71215e-05 -0.000391536 
         -50      1.11863    1.126e-05  1.72222e-05  -0.00039153 
         -50       1.1513  1.04877e-05  1.73085e-05 -0.000391526 
         -50      1.18444  9.71839e-06   1.7392e-05 -0.000391527 
         -50      1.21802  8.96057e-06  1.74817e-05 -0.000391533 
         -50      1.25211  8.21903e-06  1.75844e-05 -0.000391548 
         -50      1.28663  7.49913e-06  1.77031e-05 -0.000391572 
         -50      1.32165  6.80171e-06  1.78384e-05 -0.000391606 
         -50      1.35712  6.12794e-06  1.79883e-05 -0.000391647 
         -50      1.39308  5.47492e-06  1.81499e-05 -0.000391693 
         -50      1.42951  4.83991e-06  1.83214e-05 -0.000391737 
         -50      1.46638  4.21926e-06  1.85056e-05  -0.00039177 
         -50      1.50375  3.60785e-06  1.87141e-05  -0.00039178 
         -50      1.54156  3.02185e-06  1.87348e-05 -0.000391821 
         -50      1.57987  2.45211e-06  1.87334e-05 -0.000391866 
         -50      1.61863  1.90082e-06   1.8724e-05 -0.000391913 
         -50      1.65788  1.36926e-06  1.87053e-05 -0.000391961 
         -50      1.69757  8.60278e-07  1.86759e-05 -0.000392011 
         -50      1.73776  3.74721e-07  1.86347e-05 -0.000392061 
         -50      1.77842 -8.55535e-08  1.85808e-05 -0.000392113 
         -50      1.81952 -5.19005e-07  1.85135e-05 -0.000392166 
         -50      1.86113 -9.25429e-07  1.84322e-05  -0.00039222 
         -50      1.90316  -1.3035e-06  1.83367e-05 -0.000392275 
         -50      1.94571 -1.65343e-06  1.82265e-05 -0.000392331 
         -50      1.98869  -1.9745e-06  1.81019e-05 -0.000392387 
         -50      2.03217 -2.26732e-06  1.79628e-05 -0.000392445 
         -50      2.07612 -2.53197e-06  1.78095e-05 -0.000392503 
         -50      2.12051 -2.76882e-06  1.76428e-05 -0.000392562 
         -50       2.1654   -2.979e-06  1.74628e-05 -0.000392622 
         -50      2.21073 -3.16315e-06  1.72707e-05 -0.000392682 
         -50      2.25656 -3.32267e-06  1.70669e-05 -0.000392743 
         -50      2.30283  -3.4586e-06  1.68527e-05 -0.000392804 
         -50       2.3496 -3.57254e-06  1.66286e-05 -0.000392866 
         -50      2.39685 -3.66591e-06  1.63959e-05 -0.000392927 
         -50      2.44452 -3.74022e-06  1.61558e-05 -0.000392989 
         -50      2.49271 -3.79723e-06  1.59091e-05 -0.000393051 
         -50      2.54132  -3.8385e-06  1.56572e-05 -0.000393112 
         -50      2.59044 -3.86574e-06  1.54007e-05 -0.000393174 
         -50         2.64 -3.88052e-06  1.51411e-05 -0.000393236 
         -50      2.69006 -3.88441e-06  1.48789e-05 -0.000393297 
         -50      2.74056 -3.87886e-06  1.46153e-05 -0.000393358 
         -50      2.79156 -3.86522e-06  1.43507e-05 -0.000393418 
         -50      2.84304 -3.84471e-06   1.4086e-05 -0.000393478 
         -50      2.89494 -3.81842e-06  1.38219e-05 -0.000393538 
         -50      2.94735  -3.7872e-06  1.35584e-05 -0.000393596 
         -50       3.0002 -3.75186e-06  1.32963e-05 -0.000393655 
         -50      3.05355  -3.7129e-06  1.30354e-05 -0.000393712 
         -50      3.10733 -3.67079e-06  1.27762e-05 -0.000393769 
         -50      3.16163 -3.62573e-06  1.25184e-05 -0.000393825 
         -50      3.21639 -3.57789e-06  1.22621e-05  -0.00039388 
         -50      3.27158 -3.52739e-06  1.20076e-05 -0.000393934 
         -50      3.32729 -3.47418e-06  1.17547e-05 -0.000393988 
         -50      3.38342 -3.41844e-06   1.1504e-05 -0.000394041 
         -50      3.44007 -3.36031e-06  1.12555e-05 -0.000394093 
         -50      3.49714 -3.30032e-06  1.10104e-05 -0.000394145 
         -50      3.55472 -3.23921e-06  1.07696e-05 -0.000394196 
         -50      3.61273 -3.17841e-06  1.05353e-05 -0.000394247 
         -50      3.67125 -3.11983e-06  1.03097e-05 -0.000394297 
         -50      3.73025 -3.06648e-06  1.00965e-05 -0.000394348 
         -50      3.78967 -3.01369e-06  9.88645e-06 -0.000394395 
         -50      3.84961  -2.9608e-06  9.66936e-06  -0.00039444 
         -50      3.90996 -2.90972e-06  9.45134e-06 -0.000394484 
         -50      3.97084 -2.85753e-06  9.23621e-06 -0.000394532 
         -50      4.03214 -2.80592e-06   9.0274e-06 -0.000394579 
         -50      4.09395 -2.75504e-06  8.82369e-06 -0.000394624 
         -50      4.15624 -2.70491e-06  8.62454e-06 -0.000394669 
         -50      4.21895 -2.65559e-06  8.42952e-06 -0.000394712 
         -50      4.28217 -2.60706e-06  8.23793e-06 -0.000394754 
         -50      4.34582 -2.55945e-06  8.04978e-06 -0.000394795 
         -50      4.40998 -2.51271e-06   7.8646e-06 -0.000394835 
         -50      4.47457 -2.46698e-06  7.68259e-06 -0.000394875 
         -50      4.53968 -2.42218e-06  7.50345e-06 -0.000394913 
         -50      4.60525 -2.37833e-06  7.32737e-06  -0.00039495 
         -50      4.67125  -2.3354e-06  7.15455e-06 -0.000394987 
         -50      4.73777 -2.29323e-06  6.98481e-06 -0.000395023 
         -50       4.8047 -2.25174e-06  6.81851e-06 -0.000395059 
         -50      4.87216 -2.21072e-06  6.65545e-06 -0.000395093 
         -50      4.94003 -2.17003e-06  6.49593e-06 -0.000395128 
         -50      5.00843 -2.12945e-06  6.33971e-06 -0.000395161 
         -50      5.07724 -2.08888e-06  6.18699e-06 -0.000395194 
         -50      5.14658 -2.04815e-06  6.03742e-06 -0.000395227 
         -50      5.21639 -2.00732e-06  5.89097e-06 -0.000395259 
         -50      5.28661 -1.96654e-06  5.74756e-06  -0.00039529 
         -50      5.35736 -1.92611e-06  5.60671e-06  -0.00039532 
         -50      5.42852  -1.8867e-06  5.46837e-06  -0.00039535 
         -50      5.50021 -1.84923e-06  5.33204e-06 -0.000395379 
         -50      5.57231 -1.81517e-06  5.19768e-06 -0.000395406 
         -50      5.64493 -1.78643e-06  5.06487e-06 -0.000395433 
         -50      5.71803 -1.74316e-06  4.93727e-06  -0.00039546 
         -50      5.79154 -1.70481e-06  4.81123e-06 -0.000395487 
         -50      5.86558 -1.67031e-06  4.68769e-06 -0.000395512 
         -50      5.94003 -1.63865e-06  4.56753e-06 -0.000395537 
         -50      6.01501 -1.60871e-06  4.45086e-06 -0.000395562 
         -50       6.0904 -1.57954e-06   4.3378e-06 -0.000395585 
         -50      6.16632 -1.55019e-06  4.22788e-06 -0.000395607 
         -50      6.24271 -1.51998e-06  4.12071e-06 -0.000395628 
         -50       6.3195 -1.48842e-06  4.01584e-06 -0.000395649 
         -50      6.39683 -1.45525e-06  3.91262e-06 -0.000395668 
         -50      6.47457 -1.42069e-06  3.81092e-06 -0.000395687 
         -50      6.55284 -1.38522e-06  3.71058e-06 -0.000395706 
         -50      6.63152 -1.34995e-06  3.61225e-06 -0.000395725 
         -50      6.71073 -1.31641e-06  3.51689e-06 -0.000395745 
         -50      6.79034 -1.28818e-06   3.4261e-06 -0.000395761 
         -50      6.87049 -1.26185e-06  3.33816e-06 -0.000395777 
         -50      6.95111 -1.23599e-06  3.25255e-06 -0.000395792 
         -50      7.03214 -1.21042e-06  3.16903e-06 -0.000395806 
         -50       7.1137   -1.185e-06   3.0872e-06 -0.000395821 
         -50      7.19566 -1.15972e-06  3.00699e-06 -0.000395835 
         -50      7.27816 -1.13454e-06  2.92815e-06 -0.000395849 
         -50      7.36106 -1.10956e-06  2.85074e-06 -0.000395862 
         -50      7.44451 -1.08479e-06  2.77466e-06 -0.000395874 
         -50      7.52842 -1.06033e-06  2.70008e-06 -0.000395886 
         -50      7.61273 -1.03623e-06  2.62727e-06 -0.000395897 
         -50      7.69758 -1.01238e-06  2.55639e-06 -0.000395908 
         -50      7.78283 -9.88671e-07  2.48793e-06 -0.000395918 
         -50      7.86862 -9.64699e-07  2.42224e-06 -0.000395928 
         -50      7.95481 -9.39917e-07  2.35993e-06 -0.000395937 
         -50      8.04155 -9.13379e-07   2.3015e-06 -0.000395945 
         -50      8.12868 -8.93182e-07  2.23874e-06 -0.000395953 
         -50      8.21635 -8.75171e-07  2.17661e-06 -0.000395961 
         -50      8.30449 -8.56872e-07  2.11698e-06 -0.000395967 
         -50      8.39303 -8.38083e-07  2.05948e-06 -0.000395974 
         -50      8.48211 -8.18595e-07  2.00379e-06 -0.000395979 
         -50      8.57159 -7.98329e-07  1.94987e-06 -0.000395985 
         -50      8.66161 -7.77241e-07  1.89756e-06 -0.000395989 
         -50      8.75203 -7.55495e-07  1.84695e-06 -0.000395994 
         -50      8.84299 -7.33368e-07  1.79792e-06 -0.000395997 
         -50      8.93443 -7.11425e-07  1.75046e-06 -0.000396001 
         -50      9.02626 -6.90519e-07  1.70446e-06 -0.000396003 
         -50      9.11863 -6.71806e-07  1.65958e-06 -0.000396006 
         -50      9.21139 -6.56928e-07  1.61548e-06 -0.000396008 
         -50      9.30471 -6.47975e-07  1.57149e-06 -0.000396009 
         -50      9.39841 -6.34444e-07  1.52868e-06  -0.00039601 
         -50      9.49267 -6.12971e-07  1.48765e-06  -0.00039601 
         -50      9.58739 -5.94011e-07  1.44726e-06  -0.00039601 
         -50      9.68251 -5.76961e-07  1.40775e-06  -0.00039601 
         -50      9.77817 -5.61264e-07  1.36923e-06 -0.000396009 
         -50      9.87422 -5.46502e-07  1.33186e-06 -0.000396008 
         -50      9.97083  -5.3229e-07  1.29564e-06 -0.000396007 
         -50      10.0678 -5.18371e-07  1.26065e-06 -0.000396005 
         -50      10.1654 -5.04514e-07  1.22683e-06 -0.000396003 
         -50      10.2633 -4.90606e-07   1.1942e-06    -0.000396 
         -50      10.3618 -4.76552e-07  1.16264e-06 -0.000395997 
         -50      10.4607 -4.62352e-07  1.13212e-06 -0.000395993 
         -50      10.5601 -4.48053e-07  1.10257e-06 -0.000395989 
         -50        10.66 -4.33717e-07  1.07387e-06 -0.000395985 
         -50      10.7603 -4.19485e-07  1.04597e-06  -0.00039598 
         -50      10.8611 -4.05477e-07  1.01876e-06 -0.000395975 
         -50      10.9623 -3.91877e-07  9.92202e-07 -0.000395969 
         -50      11.0641 -3.78827e-07  9.66207e-07 -0.000395963 
         -50      11.1663 -3.66498e-07  9.40751e-07 -0.000395957 
         -50       11.269 -3.55034e-07  9.15828e-07  -0.00039595 
         -50      11.3721  -3.4452e-07  8.91389e-07 -0.000395942 
         -50      11.4757 -3.35025e-07  8.67482e-07 -0.000395935 
         -50      11.5798 -3.26519e-07  8.44095e-07 -0.000395926 
         -50      11.6844 -3.18919e-07  8.21302e-07 -0.000395918 
         -50      11.7894 -3.12009e-07  7.99117e-07 -0.000395909 
         -50       11.895 -3.05472e-07  7.77611e-07   -0.0003959 
         -50      12.0009 -2.98842e-07  7.56857e-07  -0.00039589 
         -50      12.1073  -2.9147e-07  7.36864e-07  -0.00039588 
         -50      12.2142 -2.82539e-07  7.17693e-07  -0.00039587 
         -50      12.3216 -2.70985e-07  6.99311e-07  -0.00039586 
         -50      12.4294 -2.55532e-07  6.81702e-07 -0.000395849 
         -50      12.5378 -2.34587e-07  6.64735e-07 -0.000395839 
         -50      12.6465 -2.20144e-07     6.43e-07 -0.000395827 
         -50      12.7558 -2.32509e-07   6.1087e-07 -0.000395816 
         -50      12.8656 -2.06908e-07  6.06696e-07 -0.000395804 
         -50      12.9757 -1.90791e-07  5.97292e-07 -0.000395791 
         -50      13.0864 -1.90744e-07  5.79295e-07 -0.000395778 
         -50      13.1975 -1.88205e-07  5.61198e-07 -0.000395765 
         -50      13.3092 -1.84164e-07  5.43381e-07 -0.000395752 
         -50      13.4212 -1.79383e-07  5.26173e-07 -0.000395738 
         -50      13.5338 -1.74398e-07  5.09745e-07 -0.000395725 
         -50      13.6468 -1.69579e-07  4.94225e-07 -0.000395711 
         -50      13.7603 -1.65143e-07  4.79669e-07 -0.000395696 
         -50      13.8743 -1.61174e-07  4.66039e-07 -0.000395682 
         -50      13.9886 -1.57675e-07  4.53297e-07 -0.000395667 
         -50      14.1036 -1.54565e-07  4.41327e-07 -0.000395651 
         -50      14.2189 -1.51729e-07  4.30034e-07 -0.000395635 
         -50      14.3348 -1.49016e-07  4.19273e-07 -0.000395619 
         -50       14.451  -1.4628e-07  4.08931e-07 -0.000395603 
         -50      14.5678 -1.43377e-07   3.9887e-07 -0.000395586 
         -50      14.6851 -1.40194e-07  3.88989e-07 -0.000395569 
         -50      14.8028 -1.36657e-07  3.79207e-07 -0.000395551 
         -50       14.921 -1.32725e-07  3.69446e-07 -0.000395533 
         -50      15.0396 -1.28419e-07  3.59685e-07 -0.000395515 
         -50      15.1588 -1.23792e-07  3.49903e-07 -0.000395497 
         -50      15.2783 -1.18954e-07  3.40139e-07 -0.000395478 
         -50      15.3984 -1.14035e-07  3.30427e-07 -0.000395459 
         -50       15.519 -1.09193e-07  3.20845e-07  -0.00039544 
         -50        15.64 -1.04582e-07   3.1149e-07 -0.000395421 
         -50      15.7615  -1.0032e-07  3.02437e-07 -0.000395401 
         -50      15.8834 -9.64751e-08  2.93786e-07 -0.000395382 
         -50      16.0058 -9.30018e-08  2.85588e-07 -0.000395362 
         -50      16.1286 -8.97191e-08  2.77879e-07 -0.000395342 
         -50       16.252 -8.62324e-08  2.70609e-07 -0.000395321 
         -50      16.3759 -8.18885e-08  2.63661e-07 -0.000395301 
         -50      16.5002 -7.57001e-08    2.568e-07  -0.00039528 
         -50       16.625 -6.62458e-08  2.49627e-07 -0.000395258 
         -50      16.7501 -6.77414e-08  2.41656e-07 -0.000395236 
         -50      16.8759 -7.83243e-08  2.34041e-07 -0.000395214 
         -50       17.002 -8.03781e-08  2.27059e-07 -0.000395191 
         -50      17.1287 -7.70023e-08  2.20486e-07 -0.000395168 
         -50      17.2557 -7.06361e-08  2.14169e-07 -0.000395146 
         -50      17.3834 -6.31187e-08  2.07982e-07 -0.000395123 
         -50      17.5115 -5.57899e-08  2.01853e-07 -0.000395099 
         -50      17.6399 -4.95443e-08  1.95742e-07 -0.000395076 
         -50       17.769 -4.48852e-08  1.89624e-07 -0.000395052 
         -50      17.8984 -4.20227e-08  1.83513e-07 -0.000395028 
         -50      18.0284  -4.0908e-08  1.77424e-07 -0.000395004 
         -50      18.1587  -4.1312e-08    1.714e-07  -0.00039498 
         -50      18.2896 -4.28738e-08  1.65471e-07 -0.000394955 
         -50       18.421 -4.51541e-08  1.59685e-07  -0.00039493 
         -50      18.5528 -4.76815e-08  1.54083e-07 -0.000394905 
         -50      18.6851 -5.00048e-08  1.48687e-07 -0.000394879 
         -50      18.8178 -5.17162e-08  1.43526e-07 -0.000394853 
         -50      18.9511 -5.24968e-08  1.38593e-07 -0.000394827 
         -50      19.0847 -5.21317e-08  1.33883e-07 -0.000394801 
         -50      19.2189 -5.05324e-08  1.29351e-07 -0.000394774 
         -50      19.3535  -4.7749e-08  1.24945e-07 -0.000394747 
         -50      19.4886 -4.39629e-08  1.20572e-07  -0.00039472 
         -50      19.6242 -3.94926e-08  1.16122e-07 -0.000394693 
         -50      19.7602 -3.47726e-08   1.1146e-07 -0.000394665 
         -50      19.8968 -3.03131e-08  1.06411e-07 -0.000394637 
         -50      20.0337 -2.66874e-08   1.0079e-07 -0.000394609 
         -50      20.1712 -2.44557e-08  9.43677e-08 -0.000394581 
         -50      20.3091 -2.44409e-08  8.81218e-08 -0.000394552 
         -50      20.4475 -2.68164e-08  8.57466e-08 -0.000394523 
         -50      20.5864 -2.96538e-08  8.38306e-08 -0.000394493 
         -50      20.7257 -3.22924e-08   8.2367e-08 -0.000394463 
         -50      20.8655 -3.37853e-08  8.12489e-08 -0.000394433 
         -50      21.0058 -3.28259e-08  8.02473e-08 -0.000394402 
         -50      21.1465 -2.76866e-08  7.89703e-08 -0.000394372 
         -50      21.2877 -1.84746e-08  7.48516e-08 -0.000394342 
         -50      21.4294 -1.19435e-08  7.05002e-08 -0.000394312 
         -50      21.5716 -3.71505e-09  6.86594e-08 -0.000394281 
         -50      21.7142  7.71075e-09  6.77387e-08  -0.00039425 
         -50      21.8573  2.06528e-08  6.61253e-08 -0.000394219 
         -50      22.0008  2.12224e-08  6.18726e-08 -0.000394187 
         -50      22.1449  1.75908e-09  5.63851e-08 -0.000394155 
         -50      22.2893 -1.23532e-08  5.18413e-08 -0.000394123 
         -50      22.4344 -2.12192e-08  4.80908e-08  -0.00039409 
         -50      22.5797 -2.52082e-08  4.49459e-08 -0.000394057 
         -50      22.7257 -2.49507e-08  4.21843e-08 -0.000394024 
         -50      22.8721 -2.12468e-08   3.9593e-08 -0.000393991 
         -50      23.0189 -1.50292e-08  3.69808e-08 -0.000393957 
         -50      23.1663 -7.27932e-09  3.41901e-08 -0.000393923 
         -50       23.314  9.91368e-10  3.11246e-08 -0.000393889 
         -50      23.4623   8.8405e-09  2.77394e-08 -0.000393855 
         -50       23.611  1.53975e-08  2.40643e-08 -0.000393821 
         -50      23.7602  1.99593e-08  2.01808e-08 -0.000393786 
         -50        23.91   2.1999e-08  1.62345e-08 -0.000393751 
         -50        24.06  2.12331e-08  1.24136e-08 -0.000393716 
         -50      24.2107  1.76527e-08  8.92035e-09 -0.000393681 
         -50      24.3617  1.15689e-08  5.96496e-09 -0.000393645 
         -50      24.5133  3.62506e-09  3.71144e-09 -0.000393609 
         -50      24.6653 -5.13767e-09  2.25504e-09 -0.000393573 
         -50      24.8178 -1.33025e-08  1.55962e-09 -0.000393537 
         -50      24.9708 -1.90094e-08  1.41032e-09   -0.0003935 
         -50      25.1242   -1.997e-08  1.34261e-09 -0.000393464 
         -50      25.2781 -1.34516e-08  5.68936e-10 -0.000393426 
         -50      25.4324  3.71568e-09 -2.10328e-09 -0.000393388 
         -50      25.5873  2.06044e-08 -4.57308e-09  -0.00039335 
         -50      25.7426  2.27138e-08 -4.82948e-09 -0.000393312 
         -50      25.8984  1.57331e-08 -4.71629e-09 -0.000393274 
         -50      26.0546  4.65836e-09 -5.37082e-09 -0.000393235 
         -50      26.2114 -6.65578e-09 -7.27957e-09 -0.000393196 
         -50      26.3686  -1.5612e-08 -1.03604e-08 -0.000393157 
         -50      26.5262 -2.09186e-08 -1.40928e-08 -0.000393117 
         -50      26.6844 -2.24482e-08  -1.7714e-08 -0.000393078 
         -50      26.8429 -2.08943e-08  -2.0434e-08 -0.000393038 
         -50       27.002 -1.72814e-08 -2.17473e-08 -0.000392998 
         -50      27.1615 -1.22763e-08 -2.17681e-08 -0.000392959 
         -50      27.3216 -5.26777e-09 -2.16514e-08 -0.000392919 
         -50      27.4821  6.72771e-09 -2.40702e-08 -0.000392879 
         -50       27.643  5.84716e-09 -2.60408e-08 -0.000392837 
         -50      27.8044 -2.79278e-09 -2.58352e-08 -0.000392795 
         -50      27.9663 -8.06861e-09  -2.6014e-08 -0.000392753 
         -50      28.1287 -1.07164e-08  -2.6488e-08 -0.000392711 
         -50      28.2914 -1.13755e-08 -2.71795e-08 -0.000392669 
         -50      28.4548 -1.06108e-08 -2.80246e-08 -0.000392627 
         -50      28.6185 -8.91032e-09 -2.89679e-08 -0.000392585 
         -50      28.7828 -6.68537e-09  -2.9967e-08 -0.000392543 
         -50      28.9475  -4.2821e-09 -3.09864e-08   -0.0003925 
         -50      29.1126 -1.98184e-09 -3.19991e-08 -0.000392458 
         -50      29.2784  1.01768e-12  -3.2988e-08 -0.000392415 
         -50      29.4444  1.50251e-09 -3.39396e-08 -0.000392372 
         -50       29.611  2.41685e-09 -3.48494e-08 -0.000392328 
         -50       29.778  2.68278e-09  -3.5715e-08 -0.000392285 
         -50      29.9456  2.28446e-09 -3.65409e-08 -0.000392241 
         -50      30.1137   1.2441e-09 -3.73332e-08 -0.000392197 
         -50      30.2821 -3.80119e-10 -3.81009e-08 -0.000392153 
         -50      30.4511 -2.50521e-09 -3.88564e-08 -0.000392108 
         -50      30.6204 -5.01861e-09 -3.96112e-08 -0.000392063 
         -50      30.7903 -7.79662e-09 -4.03797e-08 -0.000392018 
         -50      30.9606 -1.06942e-08 -4.11735e-08 -0.000391973 
         -50      31.1315 -1.35681e-08 -4.20061e-08 -0.000391928 
         -50      31.3028 -1.62662e-08 -4.28876e-08 -0.000391882 
         -50      31.4745 -1.86411e-08 -4.38261e-08 -0.000391836 
         -50      31.6468 -2.05616e-08 -4.48293e-08  -0.00039179 
         -50      31.8194 -2.19057e-08 -4.58991e-08 -0.000391744 
         -50      31.9926 -2.25792e-08  -4.7037e-08 -0.000391697 
         -50      32.1662 -2.25138e-08 -4.82374e-08  -0.00039165 
         -50      32.3404 -2.16773e-08 -4.94943e-08 -0.000391603 
         -50      32.5149 -2.00812e-08 -5.07932e-08 -0.000391556 
         -50        32.69 -1.77815e-08 -5.21194e-08 -0.000391508 
         -50      32.8655 -1.48938e-08 -5.34501e-08  -0.00039146 
         -50      33.0414 -1.15977e-08 -5.47579e-08 -0.000391412 
         -50       33.218  -8.1344e-09 -5.60136e-08 -0.000391364 
         -50      33.3948 -4.83231e-09 -5.71794e-08 -0.000391316 
         -50      33.5723 -2.09333e-09 -5.82167e-08 -0.000391267 
         -50        33.75 -4.19806e-10 -5.90791e-08 -0.000391218 
         -50      33.9284 -4.06369e-10 -5.97194e-08 -0.000391168 
         -50      34.1073 -2.75901e-09 -6.00846e-08 -0.000391118 
         -50      34.2865 -8.29001e-09 -6.01197e-08 -0.000391068 
         -50      34.4663 -1.79476e-08 -5.97674e-08 -0.000391018 
         -50      34.6465 -3.27841e-08 -5.89695e-08 -0.000390967 
         -50      34.8272 -5.40293e-08  -5.7665e-08 -0.000390916 
         -50      35.0083 -6.00097e-08 -5.75125e-08 -0.000390865 
         -50        35.19 -4.74598e-08 -5.85414e-08 -0.000390816 
         -50      35.3721 -2.81583e-08  -5.9701e-08 -0.000390767 
         -50      35.5546 -2.85075e-09 -6.03318e-08 -0.000390716 
         -50      35.7377  2.01767e-09  -5.7167e-08 -0.000390665 
         -50      35.9211  2.09948e-09 -5.45981e-08 -0.000390613 
         -50      36.1052 -1.23376e-09 -5.26556e-08 -0.000390562 
         -50      36.2895 -6.75068e-09  -5.1372e-08  -0.00039051 
         -50      36.4745 -1.33709e-08 -5.07696e-08 -0.000390459 
         -50      36.6598 -2.01277e-08 -5.08702e-08 -0.000390408 
         -50      36.8457 -2.60456e-08 -5.16727e-08 -0.000390356 
         -50      37.0321 -2.88753e-08 -5.22097e-08 -0.000390305 
         -50      37.2188 -3.15276e-08 -5.23353e-08 -0.000390253 
         -50      37.4062 -3.35344e-08 -5.21935e-08 -0.000390201 
         -50      37.5938 -3.45912e-08  -5.1898e-08 -0.000390148 
         -50      37.7821 -3.45434e-08 -5.15358e-08 -0.000390095 
         -50      37.9707 -3.33565e-08 -5.11716e-08 -0.000390042 
         -50      38.1599 -3.10926e-08 -5.08495e-08 -0.000389989 
         -50      38.3496 -2.78938e-08 -5.05981e-08 -0.000389935 
         -50      38.5396 -2.39613e-08 -5.04323e-08 -0.000389881 
         -50      38.7302 -1.95244e-08 -5.03562e-08 -0.000389827 
         -50      38.9211 -1.48453e-08 -5.03659e-08 -0.000389773 
         -50      39.1127  -1.0176e-08 -5.04522e-08 -0.000389718 
         -50      39.3046 -5.77237e-09  -5.0602e-08 -0.000389664 
         -50      39.4971 -1.85283e-09 -5.08013e-08 -0.000389609 
         -50      39.6899  1.38518e-09 -5.10356e-08 -0.000389554 
         -50      39.8833  3.79835e-09 -5.12925e-08 -0.000389499 
         -50      40.0772  5.28498e-09 -5.15616e-08 -0.000389444 
         -50      40.2714  5.80052e-09  -5.1836e-08 -0.000389388 
         -50      40.4663  5.35776e-09 -5.21129e-08 -0.000389333 
         -50      40.6615  4.02556e-09 -5.23929e-08 -0.000389278 
         -50      40.8573  1.92341e-09 -5.26808e-08 -0.000389222 
         -50      41.0534 -7.75943e-10 -5.29834e-08 -0.000389166 
         -50      41.2501 -3.86768e-09 -5.33104e-08  -0.00038911 
         -50      41.4473 -7.11235e-09 -5.36711e-08 -0.000389054 
         -50      41.6448 -1.02562e-08 -5.40732e-08 -0.000388998 
         -50      41.8429  -1.3057e-08 -5.45212e-08 -0.000388941 
         -50      42.0414 -1.52883e-08 -5.50115e-08 -0.000388885 
         -50      42.2405 -1.67809e-08  -5.5532e-08 -0.000388828 
         -50      42.4399 -1.74382e-08 -5.60544e-08 -0.000388771 
         -50      42.6399 -1.72766e-08 -5.65338e-08 -0.000388715 
         -50      42.8404 -1.64576e-08 -5.69001e-08 -0.000388658 
         -50      43.0412 -1.53314e-08 -5.70544e-08   -0.0003886 
         -50      43.2426 -1.44766e-08 -5.68626e-08 -0.000388543 
         -50      43.4444 -1.47554e-08 -5.61483e-08 -0.000388486 
         -50      43.6467 -1.73646e-08 -5.46835e-08 -0.000388428 
         -50      43.8494 -2.38884e-08 -5.21857e-08 -0.000388371 
         -50      44.0527 -3.63849e-08 -4.82986e-08 -0.000388313 
         -50      44.2563 -5.65807e-08 -4.28915e-08 -0.000388256 
         -50      44.4606  -4.7109e-08 -4.79252e-08 -0.000388198 
         -50      44.6653 -3.98937e-08 -5.07645e-08  -0.00038814 
         -50      44.8704 -3.45989e-08 -5.18756e-08 -0.000388082 
         -50       45.076 -3.09853e-08 -5.16539e-08 -0.000388023 
         -50       45.282 -2.88885e-08 -5.04322e-08 -0.000387964 
         -50      45.4886  -2.8146e-08  -4.8493e-08 -0.000387905 
         -50      45.6955 -2.85606e-08 -4.60885e-08 -0.000387845 
         -50       45.903 -2.98418e-08 -4.34422e-08 -0.000387786 
         -50      46.1111 -3.15518e-08 -4.07763e-08 -0.000387727 
         -50      46.3194 -3.30486e-08 -3.83209e-08 -0.000387667 
         -50      46.5283 -3.34339e-08  -3.6324e-08 -0.000387608 
         -50      46.7376 -3.14873e-08 -3.50806e-08 -0.000387549 
         -50      46.9475 -2.56034e-08 -3.49387e-08 -0.000387491 
         -50      47.1577 -1.37467e-08 -3.63238e-08 -0.000387433 
         -50      47.3685 -3.89952e-09 -3.67463e-08 -0.000387374 
         -50      47.5798 -8.81996e-09 -3.43428e-08 -0.000387312 
         -50      47.7914 -1.36937e-08 -3.36826e-08 -0.000387251 
         -50      48.0037 -1.82655e-08 -3.42562e-08  -0.00038719 