Variables = x, y, u, v, p

Zone, I=6400, F=POINT
         -50            0            0            0     -25.5466 
         -50     0.000471 -6.00515e-06 -8.78674e-10     -25.5466 
         -50     0.001884  -2.1307e-05 -3.17909e-09     -25.5466 
         -50     0.004239   -3.919e-05 -5.98221e-09     -25.5466 
         -50     0.007537 -5.24969e-05 -8.01324e-09     -25.5466 
         -50     0.011776 -5.74425e-05 -7.91199e-09     -25.5466 
         -50     0.016958  -5.5548e-05 -4.43911e-09     -25.5466 
         -50     0.023081 -5.22247e-05  3.47121e-09     -25.5466 
         -50      0.03015 -5.25095e-05  1.68198e-08     -25.5466 
         -50     0.038157 -5.66467e-05  3.66502e-08     -25.5466 
         -50     0.047107 -5.97169e-05  6.41127e-08     -25.5466 
         -50     0.056999 -5.80612e-05  1.00214e-07     -25.5466 
         -50     0.067837 -5.78792e-05  1.45643e-07     -25.5466 
         -50     0.079614 -6.38643e-05  2.01574e-07     -25.5466 
         -50     0.092332 -6.27163e-05  2.68455e-07     -25.5466 
         -50     0.105992 -6.50251e-05  3.45387e-07     -25.5466 
         -50       0.1206 -6.66598e-05  4.32238e-07     -25.5466 
         -50     0.136145 -6.83738e-05   5.2783e-07     -25.5466 
         -50     0.152631 -7.03398e-05  6.30923e-07     -25.5466 
         -50     0.170067 -7.23394e-05  7.39982e-07     -25.5466 
         -50     0.188438  -7.4109e-05   8.5282e-07     -25.5466 
         -50     0.207751 -7.56848e-05  9.66914e-07     -25.5466 
         -50     0.228006 -7.73807e-05  1.07982e-06     -25.5466 
         -50     0.249212 -7.88194e-05  1.19105e-06     -25.5466 
         -50     0.271351 -8.01969e-05   1.3041e-06     -25.5465 
         -50     0.294433 -8.14162e-05  1.40924e-06     -25.5465 
         -50     0.318456 -8.24661e-05  1.50711e-06     -25.5465 
         -50     0.343432 -8.33676e-05  1.61175e-06     -25.5465 
         -50     0.369339 -8.41324e-05  1.74507e-06     -25.5465 
         -50     0.396189 -8.47654e-05  1.92984e-06     -25.5465 
         -50     0.423981 -8.52636e-05  2.18088e-06     -25.5465 
         -50     0.452726 -8.56187e-05  2.49686e-06     -25.5465 
         -50     0.482403 -8.58185e-05  2.85414e-06     -25.5465 
         -50     0.513021 -8.58504e-05  3.20786e-06     -25.5465 
         -50     0.544594 -8.57024e-05   3.5029e-06     -25.5465 
         -50     0.577096 -8.53636e-05   3.7021e-06     -25.5464 
         -50     0.610541 -8.48187e-05  3.82783e-06     -25.5464 
         -50     0.644927 -8.40366e-05  3.73145e-06     -25.5464 
         -50      0.68027  -8.3075e-05  3.71073e-06     -25.5464 
         -50     0.716541 -8.19454e-05  3.77255e-06     -25.5464 
         -50     0.753754 -8.06609e-05  3.91532e-06     -25.5463 
         -50     0.791909 -7.92365e-05  4.12982e-06     -25.5463 
         -50     0.831022  -7.7688e-05  4.40071e-06     -25.5463 
         -50     0.871061 -7.60335e-05  4.70779e-06     -25.5463 
         -50     0.912043 -7.42889e-05  5.02893e-06     -25.5462 
         -50     0.953966 -7.24695e-05  5.34212e-06     -25.5462 
         -50     0.996849 -7.05878e-05  5.62836e-06     -25.5462 
         -50      1.04066 -6.86564e-05  5.87371e-06     -25.5461 
         -50      1.08541 -6.66825e-05  6.07219e-06     -25.5461 
         -50      1.13112 -6.46707e-05  6.22663e-06      -25.546 
         -50      1.17775  -6.2626e-05  6.34874e-06      -25.546 
         -50      1.22533 -6.05506e-05   6.4577e-06      -25.546 
         -50      1.27384 -5.84495e-05  6.57558e-06     -25.5459 
         -50      1.32333 -5.63329e-05  6.71975e-06     -25.5458 
         -50      1.37373 -5.42249e-05  6.89054e-06     -25.5458 
         -50      1.42507 -5.21663e-05  7.05388e-06     -25.5457 
         -50      1.47736  -5.0228e-05  7.11642e-06     -25.5457 
         -50      1.53061 -4.83596e-05   7.1412e-06     -25.5456 
         -50      1.58478 -4.66138e-05  7.23644e-06     -25.5455 
         -50      1.63989 -4.51576e-05  7.21143e-06     -25.5455 
         -50      1.69595 -4.39532e-05  7.10753e-06     -25.5454 
         -50      1.75297  -4.2965e-05  6.95923e-06     -25.5453 
         -50      1.81091  -4.2161e-05  6.79429e-06     -25.5452 
         -50      1.86979 -4.15114e-05  6.63341e-06     -25.5451 
         -50      1.92964 -4.09897e-05  6.49056e-06      -25.545 
         -50       1.9904 -4.05734e-05  6.37354e-06     -25.5449 
         -50      2.05211 -4.02429e-05  6.28416e-06     -25.5448 
         -50      2.11476  -3.9982e-05  6.21915e-06     -25.5447 
         -50      2.17838 -3.97782e-05  6.17091e-06     -25.5446 
         -50      2.24291 -3.96218e-05  6.12859e-06     -25.5445 
         -50      2.30839 -3.95062e-05  6.07905e-06     -25.5444 
         -50       2.3748 -3.94272e-05   6.0081e-06     -25.5442 
         -50      2.44219 -3.93828e-05  5.90172e-06     -25.5441 
         -50      2.51049 -3.93726e-05  5.74745e-06      -25.544 
         -50      2.57974 -3.93974e-05  5.53537e-06     -25.5438 
         -50      2.64993 -3.94586e-05  5.25941e-06     -25.5437 
         -50      2.72108 -3.95574e-05  4.91804e-06     -25.5435 
         -50      2.79315 -3.96944e-05  4.51566e-06     -25.5433 
         -50      2.86617 -3.98691e-05  4.06205e-06     -25.5432 
         -50      2.94012  -4.0079e-05  3.57291e-06      -25.543 
         -50      3.01505 -4.03195e-05  3.06879e-06     -25.5428 
         -50      3.09089 -4.05831e-05  2.57465e-06     -25.5426 
         -50      3.16767 -4.08596e-05  2.11637e-06     -25.5424 
         -50      3.24542 -4.11358e-05  1.71821e-06     -25.5422 
         -50      3.32409 -4.13955e-05  1.39875e-06      -25.542 
         -50       3.4037 -4.16206e-05  1.16405e-06     -25.5418 
         -50      3.48425 -4.17915e-05  1.00077e-06     -25.5416 
         -50      3.56577 -4.18885e-05   8.6647e-07     -25.5413 
         -50       3.6482 -4.18936e-05  6.78143e-07     -25.5411 
         -50      3.73158 -4.17933e-05  2.97731e-07     -25.5408 
         -50       3.8159 -4.24422e-05  7.45875e-07     -25.5406 
         -50      3.90119 -4.31321e-05  1.44157e-06     -25.5403 
         -50       3.9874 -4.32627e-05  1.04928e-06       -25.54 
         -50      4.07454 -4.33847e-05  5.68175e-07     -25.5397 
         -50      4.16263 -4.35981e-05  2.27101e-07     -25.5394 
         -50      4.25169 -4.38792e-05 -3.19096e-09     -25.5391 
         -50      4.34166 -4.41964e-05 -1.43699e-07     -25.5388 
         -50      4.43258 -4.45166e-05 -2.10856e-07     -25.5385 
         -50      4.52447 -4.48101e-05 -2.18916e-07     -25.5381 
         -50      4.61726 -4.50544e-05 -1.82404e-07     -25.5378 
         -50        4.711 -4.52378e-05 -1.17805e-07     -25.5374 
         -50      4.80569 -4.53606e-05 -4.43609e-08     -25.5371 
         -50      4.90135 -4.54352e-05  1.61786e-08     -25.5367 
         -50      4.99791 -4.54833e-05  4.10119e-08     -25.5363 
         -50      5.09542 -4.55309e-05  9.57896e-09     -25.5359 
         -50      5.19387 -4.55994e-05 -9.15501e-08     -25.5355 
         -50       5.2933  -4.5694e-05 -2.61528e-07      -25.535 
         -50      5.39364 -4.57865e-05 -4.75179e-07     -25.5346 
         -50      5.49491 -4.57941e-05 -6.70751e-07     -25.5342 
         -50      5.59713  -4.5552e-05 -7.33652e-07     -25.5337 
         -50      5.70033 -4.57046e-05 -8.70257e-07     -25.5332 
         -50      5.80443 -4.61543e-05  -1.0434e-06     -25.5327 
         -50      5.90948 -4.63888e-05  -1.2029e-06     -25.5322 
         -50      6.01551 -4.65827e-05 -1.47061e-06     -25.5317 
         -50      6.12244 -4.68201e-05 -1.82877e-06     -25.5312 
         -50      6.23031 -4.71161e-05 -2.18622e-06     -25.5307 
         -50      6.33912 -4.74427e-05 -2.44394e-06     -25.5301 
         -50      6.44892 -4.77591e-05 -2.56052e-06     -25.5295 
         -50      6.55962 -4.80484e-05 -2.61549e-06     -25.5289 
         -50      6.67126 -4.83589e-05 -2.86974e-06     -25.5283 
         -50      6.78384  -4.8601e-05 -3.21653e-06     -25.5277 
         -50      6.89741  -4.8592e-05 -3.17455e-06     -25.5271 
         -50      7.01187 -4.85754e-05 -3.25322e-06     -25.5265 
         -50      7.12728 -4.85625e-05 -3.42071e-06     -25.5258 
         -50      7.24363 -4.85641e-05 -3.64439e-06     -25.5251 
         -50      7.36097 -4.85901e-05 -3.89158e-06     -25.5244 
         -50       7.4792 -4.86478e-05 -4.13208e-06     -25.5237 
         -50      7.59838 -4.87411e-05 -4.34432e-06      -25.523 
         -50      7.71854   -4.887e-05 -4.52364e-06     -25.5223 
         -50       7.8396 -4.90293e-05 -4.69424e-06     -25.5215 
         -50      7.96161 -4.92082e-05 -4.92565e-06     -25.5207 
         -50      8.08455 -4.93244e-05 -5.23072e-06     -25.5199 
         -50      8.20849 -4.92549e-05 -5.23745e-06     -25.5191 
         -50      8.33332 -4.93141e-05  -5.3256e-06     -25.5183 
         -50      8.45909 -4.94727e-05 -5.42103e-06     -25.5175 
         -50       8.5858 -4.97077e-05 -5.48213e-06     -25.5166 
         -50      8.71351 -4.99944e-05 -5.50382e-06     -25.5157 
         -50       8.8421  -5.0297e-05 -5.51663e-06     -25.5148 
         -50      8.97164 -5.05584e-05 -5.58003e-06     -25.5139 
         -50      9.10212 -5.06865e-05 -5.76895e-06      -25.513 
         -50       9.2336 -5.05396e-05 -6.15301e-06      -25.512 
         -50      9.36596 -5.00869e-05 -6.65055e-06      -25.511 
         -50      9.49927 -5.05476e-05 -6.46093e-06       -25.51 
         -50      9.63352 -5.07882e-05 -6.42466e-06      -25.509 
         -50      9.76877 -5.08967e-05 -6.49568e-06      -25.508 
         -50       9.9049 -5.09329e-05 -6.62955e-06     -25.5069 
         -50       10.042 -5.09337e-05 -6.78585e-06     -25.5058 
         -50      10.1801 -5.09184e-05 -6.93021e-06     -25.5047 
         -50       10.319 -5.08945e-05  -7.0357e-06     -25.5036 
         -50      10.4589 -5.08617e-05 -7.08459e-06     -25.5025 
         -50      10.5998 -5.08165e-05 -7.06884e-06     -25.5013 
         -50      10.7416 -5.07556e-05 -6.99055e-06     -25.5001 
         -50      10.8843 -5.06788e-05 -6.86176e-06     -25.4989 
         -50       11.028 -5.05905e-05 -6.70335e-06     -25.4977 
         -50      11.1726 -5.05009e-05 -6.54336e-06     -25.4964 
         -50      11.3182 -5.04251e-05 -6.41434e-06     -25.4952 
         -50      11.4647 -5.03812e-05 -6.34993e-06     -25.4939 
         -50      11.6122 -5.03867e-05 -6.37993e-06     -25.4925 
         -50      11.7605 -5.04533e-05 -6.52456e-06     -25.4912 
         -50      11.9099 -5.05789e-05 -6.78745e-06     -25.4898 
         -50      12.0602 -5.07382e-05 -7.14647e-06     -25.4884 
         -50      12.2114 -5.08705e-05 -7.54418e-06      -25.487 
         -50      12.3636 -5.08641e-05 -7.87563e-06     -25.4856 
         -50      12.5167 -5.05389e-05 -7.97406e-06     -25.4841 
         -50      12.6707 -4.98287e-05 -7.93859e-06     -25.4826 
         -50      12.8257 -4.99525e-05 -7.42868e-06     -25.4811 
         -50      12.9817 -5.02987e-05 -6.86585e-06     -25.4796 
         -50      13.1386 -5.02524e-05   -7.569e-06      -25.478 
         -50      13.2964 -5.02537e-05 -8.02829e-06     -25.4764 
         -50      13.4551 -5.02671e-05 -8.30266e-06     -25.4748 
         -50      13.6149 -5.02709e-05 -8.44697e-06     -25.4731 
         -50      13.7755 -5.02549e-05 -8.51026e-06     -25.4715 
         -50      13.9371 -5.02176e-05 -8.53472e-06     -25.4698 
         -50      14.0996 -5.01633e-05 -8.55435e-06      -25.468 
         -50      14.2631 -5.01002e-05 -8.59435e-06     -25.4663 
         -50      14.4275 -5.00376e-05 -8.67062e-06     -25.4645 
         -50      14.5928 -4.99843e-05 -8.78985e-06     -25.4627 
         -50      14.7592  -4.9947e-05    -8.95e-06     -25.4609 
         -50      14.9264 -4.99289e-05 -9.14096e-06      -25.459 
         -50      15.0946 -4.99288e-05 -9.34651e-06     -25.4571 
         -50      15.2637 -4.99407e-05 -9.54612e-06     -25.4552 
         -50      15.4338 -4.99543e-05 -9.71794e-06     -25.4533 
         -50      15.6048 -4.99552e-05 -9.84202e-06     -25.4513 
         -50      15.7767 -4.99269e-05 -9.90511e-06     -25.4493 
         -50      15.9496 -4.98524e-05 -9.90557e-06     -25.4473 
         -50      16.1235 -4.97175e-05 -9.85959e-06     -25.4453 
         -50      16.2982 -4.95148e-05 -9.80854e-06     -25.4432 
         -50      16.4739 -4.92481e-05 -9.82708e-06     -25.4411 
         -50      16.6506 -4.89389e-05 -1.00328e-05     -25.4389 
         -50      16.8282 -4.88338e-05 -1.00046e-05     -25.4368 
         -50      17.0068 -4.88308e-05 -1.00482e-05     -25.4346 
         -50      17.1862 -4.88279e-05 -1.02722e-05     -25.4323 
         -50      17.3667 -4.87999e-05 -1.06186e-05     -25.4301 
         -50      17.5481 -4.87373e-05 -1.10308e-05     -25.4278 
         -50      17.7304 -4.86424e-05 -1.14567e-05     -25.4255 
         -50      17.9136 -4.85251e-05  -1.1851e-05     -25.4231 
         -50      18.0979 -4.84001e-05 -1.21772e-05     -25.4207 
         -50       18.283  -4.8283e-05 -1.24097e-05     -25.4183 
         -50      18.4691 -4.81879e-05 -1.25355e-05     -25.4159 
         -50      18.6561 -4.81249e-05 -1.25552e-05     -25.4134 
         -50      18.8441 -4.80979e-05 -1.24836e-05     -25.4109 
         -50       19.033 -4.81035e-05 -1.23507e-05     -25.4084 
         -50      19.2228   -4.813e-05 -1.22006e-05     -25.4059 
         -50      19.4136 -4.81575e-05  -1.2091e-05     -25.4033 
         -50      19.6054 -4.81581e-05  -1.2092e-05     -25.4007 
         -50       19.798 -4.80978e-05 -1.22835e-05      -25.398 
         -50      19.9917 -4.79388e-05 -1.27528e-05     -25.3953 
         -50      20.1862 -4.76426e-05   -1.359e-05     -25.3926 
         -50      20.3818 -4.69978e-05 -1.39232e-05     -25.3899 
         -50      20.5782 -4.64358e-05 -1.35727e-05     -25.3871 
         -50      20.7756 -4.62955e-05  -1.3293e-05     -25.3843 
         -50       20.974 -4.66442e-05 -1.30806e-05     -25.3815 
         -50      21.1732  -4.7553e-05 -1.28987e-05     -25.3786 
         -50      21.3734 -4.59607e-05 -1.32717e-05     -25.3757 
         -50      21.5745 -4.49195e-05 -1.31998e-05     -25.3728 
         -50      21.7767 -4.53805e-05 -1.32149e-05     -25.3698 
         -50      21.9797 -4.66808e-05 -1.38409e-05     -25.3668 
         -50      22.1837 -4.66234e-05 -1.40867e-05     -25.3638 
         -50      22.3886  -4.6241e-05 -1.41773e-05     -25.3608 
         -50      22.5945 -4.56886e-05 -1.41757e-05     -25.3577 
         -50      22.8013 -4.51175e-05 -1.41394e-05     -25.3546 
         -50      23.0091 -4.46507e-05  -1.4117e-05     -25.3514 
         -50      23.2177 -4.43676e-05 -1.41463e-05     -25.3482 
         -50      23.4274 -4.42943e-05 -1.42515e-05      -25.345 
         -50       23.638 -4.44012e-05 -1.44422e-05     -25.3418 
         -50      23.8495 -4.46089e-05 -1.47118e-05     -25.3385 
         -50       24.062 -4.48035e-05 -1.50376e-05     -25.3352 
         -50      24.2754  -4.4861e-05   -1.538e-05     -25.3319 
         -50      24.4897 -4.46838e-05 -1.56842e-05     -25.3285 
         -50       24.705  -4.4247e-05 -1.58814e-05     -25.3251 
         -50      24.9213 -4.36581e-05 -1.58914e-05     -25.3217 
         -50      25.1385 -4.32315e-05 -1.56255e-05     -25.3182 
         -50      25.3566  -4.3574e-05 -1.49913e-05     -25.3148 
         -50      25.5756 -4.39336e-05  -1.4767e-05     -25.3112 
         -50      25.7957 -4.36359e-05 -1.48074e-05     -25.3077 
         -50      26.0166 -4.34009e-05 -1.48216e-05     -25.3041 
         -50      26.2385 -4.32021e-05  -1.4983e-05     -25.3005 
         -50      26.4613 -4.29995e-05 -1.53324e-05     -25.2969 
         -50      26.6851 -4.27545e-05 -1.58055e-05     -25.2932 
         -50      26.9098 -4.24605e-05 -1.62828e-05     -25.2895 
         -50      27.1354 -4.21879e-05 -1.66686e-05     -25.2857 
         -50      27.3621 -4.21478e-05 -1.69963e-05      -25.282 
         -50      27.5896 -4.24957e-05 -1.73738e-05     -25.2782 
         -50      27.8181 -4.22817e-05 -1.72791e-05     -25.2744 
         -50      28.0475 -4.21102e-05 -1.71866e-05     -25.2705 
         -50      28.2779 -4.19614e-05 -1.71125e-05     -25.2666 
         -50      28.5092 -4.18203e-05 -1.70689e-05     -25.2627 
         -50      28.7414 -4.16761e-05  -1.7064e-05     -25.2588 
         -50      28.9746 -4.15218e-05 -1.71025e-05     -25.2548 
         -50      29.2088 -4.13534e-05 -1.71857e-05     -25.2508 
         -50      29.4439 -4.11699e-05  -1.7312e-05     -25.2468 
         -50      29.6799 -4.09725e-05 -1.74774e-05     -25.2427 
         -50      29.9168 -4.07638e-05 -1.76756e-05     -25.2386 
         -50      30.1548  -4.0548e-05 -1.78986e-05     -25.2345 
         -50      30.3936 -4.03302e-05 -1.81367e-05     -25.2304 
         -50      30.6334 -4.01156e-05 -1.83798e-05     -25.2262 
         -50      30.8742 -3.99096e-05  -1.8617e-05      -25.222 
         -50      31.1158 -3.97173e-05 -1.88375e-05     -25.2178 
         -50      31.3584 -3.95428e-05 -1.90311e-05     -25.2135 
         -50       31.602 -3.93894e-05 -1.91889e-05     -25.2092 
         -50      31.8465  -3.9259e-05 -1.93034e-05     -25.2049 
         -50      32.0919 -3.91519e-05 -1.93694e-05     -25.2006 
         -50      32.3383 -3.90669e-05 -1.93848e-05     -25.1962 
         -50      32.5856 -3.90006e-05 -1.93509e-05     -25.1918 
         -50       32.834 -3.89479e-05  -1.9273e-05     -25.1874 
         -50      33.0831 -3.89017e-05 -1.91618e-05     -25.1829 
         -50      33.3333 -3.88528e-05 -1.90331e-05     -25.1784 
         -50      33.5843 -3.87905e-05 -1.89094e-05     -25.1739 
         -50      33.8364 -3.87023e-05 -1.88201e-05     -25.1694 
         -50      34.0894 -3.85743e-05 -1.88029e-05     -25.1649 
         -50      34.3433 -3.83919e-05 -1.89039e-05     -25.1603 
         -50      34.5981 -3.81397e-05 -1.91791e-05     -25.1557 
         -50       34.854 -3.78022e-05 -1.96951e-05     -25.1511 
         -50      35.1107  -3.7368e-05 -1.98844e-05     -25.1464 
         -50      35.3684 -3.69151e-05 -1.99717e-05     -25.1417 
         -50      35.6271 -3.66989e-05 -2.01817e-05      -25.137 
         -50      35.8867 -3.68081e-05  -2.0453e-05     -25.1323 
         -50      36.1472 -3.68079e-05 -2.07608e-05     -25.1275 
         -50      36.4086 -3.67454e-05 -2.10566e-05     -25.1228 
         -50      36.6711 -3.66595e-05 -2.13015e-05      -25.118 
         -50      36.9344 -3.64635e-05 -2.11994e-05     -25.1132 
         -50      37.1987 -3.60988e-05 -2.06618e-05     -25.1083 
         -50      37.4639 -3.57644e-05 -2.01906e-05     -25.1034 
         -50      37.7301 -3.54618e-05 -1.97971e-05     -25.0986 
         -50      37.9972 -3.51918e-05 -1.94877e-05     -25.0936 
         -50      38.2652  -3.4954e-05  -1.9263e-05     -25.0887 
         -50      38.5342 -3.47472e-05 -1.91196e-05     -25.0838 
         -50      38.8042 -3.45691e-05 -1.90512e-05     -25.0788 
         -50      39.0751 -3.44171e-05 -1.90488e-05     -25.0738 
         -50      39.3469 -3.42873e-05 -1.91018e-05     -25.0688 
         -50      39.6197 -3.41752e-05 -1.91986e-05     -25.0637 
         -50      39.8934 -3.40762e-05 -1.93271e-05     -25.0587 
         -50       40.168 -3.39846e-05 -1.94759e-05     -25.0536 
         -50      40.4436 -3.38952e-05 -1.96341e-05     -25.0485 
         -50      40.7202 -3.38021e-05 -1.97924e-05     -25.0434 
         -50      40.9977 -3.37003e-05 -1.99431e-05     -25.0383 
         -50      41.2761 -3.35848e-05 -2.00806e-05     -25.0331 
         -50      41.5554 -3.34515e-05 -2.02017e-05     -25.0279 
         -50      41.8358 -3.32976e-05 -2.03057e-05     -25.0227 
         -50       42.117 -3.31218e-05 -2.03942e-05     -25.0175 
         -50      42.3992 -3.29246e-05 -2.04716e-05     -25.0123 
         -50      42.6823  -3.2709e-05 -2.05443e-05     -25.0071 
         -50      42.9664 -3.24809e-05 -2.06209e-05     -25.0018 
         -50      43.2514   -3.225e-05 -2.07115e-05     -24.9965 
         -50      43.5373 -3.20295e-05 -2.08271e-05     -24.9912 
         -50      43.8243 -3.18379e-05 -2.09793e-05     -24.9859 
         -50      44.1121 -3.16989e-05 -2.11787e-05     -24.9806 
         -50      44.4009 -3.15908e-05 -2.12498e-05     -24.9753 
         -50      44.6906  -3.1461e-05 -2.11469e-05     -24.9699 
         -50      44.9813 -3.13434e-05 -2.10329e-05     -24.9645 
         -50      45.2729 -3.12419e-05 -2.09169e-05     -24.9592 
         -50      45.5654 -3.11546e-05 -2.08054e-05     -24.9538 
         -50      45.8589 -3.10751e-05 -2.07023e-05     -24.9483 
         -50      46.1534 -3.09929e-05 -2.06086e-05     -24.9429 
         -50      46.4488 -3.08954e-05 -2.05224e-05     -24.9375 
         -50      46.7451 -3.07684e-05 -2.04376e-05      -24.932 
         -50      47.0423 -3.05984e-05 -2.03443e-05     -24.9266 
         -50      47.3406 -3.03922e-05 -2.02605e-05     -24.9211 
         -50      47.6397 -3.02519e-05  -2.0308e-05     -24.9156 
         -50      47.9398 -3.01077e-05 -2.03322e-05     -24.9101 
         -50      48.2409 -2.99581e-05  -2.0338e-05     -24.9046 
         -50      48.5428 -2.98022e-05 -2.03281e-05     -24.8991 
         -50      48.8457 -2.96388e-05 -2.03048e-05     -24.8935 
         -50      49.1496 -2.94675e-05 -2.02693e-05      -24.888 
         -50      49.4545 -2.92884e-05  -2.0223e-05     -24.8824 
         -50      49.7602 -2.91023e-05  -2.0167e-05     -24.8769 
         -50      50.0668  -2.8911e-05 -2.01029e-05     -24.8713 
         -50      50.3744 -2.87168e-05 -2.00328e-05     -24.8657 
         -50      50.6831 -2.85226e-05 -1.99591e-05     -24.8601 
         -50      50.9926 -2.83323e-05 -1.98846e-05     -24.8545 
         -50       51.303 -2.81495e-05 -1.98127e-05     -24.8489 
         -50      51.6144 -2.79783e-05 -1.97465e-05     -24.8433 
         -50      51.9268  -2.7822e-05 -1.96888e-05     -24.8377 
         -50        52.24 -2.76835e-05 -1.96418e-05      -24.832 
         -50      52.5542 -2.75639e-05 -1.96061e-05     -24.8264 
         -50      52.8694 -2.74624e-05   -1.958e-05     -24.8208 
         -50      53.1856 -2.73753e-05  -1.9559e-05     -24.8151 
         -50      53.5026 -2.72954e-05 -1.95343e-05     -24.8094 
         -50      53.8205 -2.72105e-05 -1.94917e-05     -24.8038 
         -50      54.1396 -2.71029e-05 -1.94105e-05     -24.7981 
         -50      54.4594 -2.69478e-05 -1.92618e-05     -24.7925 
         -50      54.7802  -2.6712e-05 -1.90065e-05     -24.7868 
         -50      55.1019 -2.65383e-05 -1.90312e-05     -24.7811 
         -50      55.4247 -2.63883e-05 -1.91053e-05     -24.7754 
         -50      55.7483 -2.62391e-05 -1.91612e-05     -24.7697 
         -50      56.0729   -2.609e-05 -1.91969e-05      -24.764 
         -50      56.3984 -2.59413e-05 -1.92116e-05     -24.7583 
         -50       56.725 -2.57935e-05 -1.92056e-05     -24.7526 
         -50      57.0523 -2.56477e-05 -1.91805e-05     -24.7469 
         -50      57.3807 -2.55051e-05 -1.91387e-05     -24.7412 
         -50      57.7099 -2.53667e-05 -1.90833e-05     -24.7355 
         -50      58.0403 -2.52336e-05 -1.90177e-05     -24.7298 
         -50      58.3714 -2.51064e-05 -1.89461e-05     -24.7241 
         -50      58.7035 -2.49852e-05 -1.88724e-05     -24.7184 
         -50      59.0367 -2.48698e-05 -1.88006e-05     -24.7127 
         -50      59.3707 -2.47591e-05 -1.87347e-05      -24.707 
         -50      59.7056 -2.46517e-05  -1.8678e-05     -24.7013 
         -50      60.0414 -2.45453e-05 -1.86334e-05     -24.6956 
         -50      60.3784 -2.44369e-05 -1.86028e-05     -24.6899 
         -50      60.7161 -2.43233e-05 -1.85875e-05     -24.6842 
         -50      61.0548 -2.42004e-05 -1.85874e-05     -24.6785 
         -50      61.3944 -2.40639e-05 -1.86012e-05     -24.6728 
         -50      61.7351 -2.39091e-05 -1.86261e-05     -24.6671 
         -50      62.0767 -2.37313e-05 -1.86577e-05     -24.6614 
         -50      62.4191  -2.3526e-05 -1.86898e-05     -24.6557 
         -50      62.7625 -2.32891e-05  -1.8714e-05       -24.65 
         -50       63.107 -2.30171e-05   -1.872e-05     -24.6443 
         -50      63.4523  -2.2708e-05 -1.86953e-05     -24.6387 
         -50      63.7985 -2.23608e-05 -1.86246e-05      -24.633 
         -50      64.1458 -2.27312e-05 -1.81968e-05     -24.6273 
         -50      64.4939 -2.29038e-05 -1.79011e-05     -24.6216 
         -50       64.843 -2.29035e-05 -1.77281e-05      -24.616 
         -50      65.1929 -2.27774e-05   -1.766e-05     -24.6103 
         -50       65.544 -2.25863e-05  -1.7676e-05     -24.6047 
         -50      65.8959 -2.24077e-05 -1.77531e-05      -24.599 
         -50      66.2487 -2.23372e-05 -1.78669e-05     -24.5934 
         -50      66.6025 -2.24753e-05 -1.79818e-05     -24.5877 
         -50      66.9573 -2.21258e-05 -1.76564e-05     -24.5821 
         -50       67.313 -2.18428e-05 -1.73668e-05     -24.5765 
         -50      67.6695  -2.1628e-05 -1.71301e-05     -24.5709 
         -50      68.0271 -2.14757e-05 -1.69559e-05     -24.5653 
         -50      68.3857 -2.13739e-05  -1.6846e-05     -24.5597 
         -50      68.7451 -2.13055e-05 -1.67953e-05     -24.5541 
         -50      69.1055 -2.12488e-05 -1.67915e-05     -24.5485 
         -50      69.4669 -2.11785e-05 -1.68155e-05     -24.5429 
         -50      69.8291 -2.10895e-05 -1.68567e-05     -24.5373 
         -50      70.1923 -2.10439e-05 -1.69048e-05     -24.5318 
         -50      70.5564 -2.09748e-05 -1.68929e-05     -24.5262 
         -50      70.9217 -2.08872e-05 -1.68355e-05     -24.5207 
         -50      71.2877 -2.07862e-05 -1.67455e-05     -24.5152 
         -50      71.6546 -2.06765e-05 -1.66341e-05     -24.5097 
         -50      72.0225 -2.05621e-05 -1.65108e-05     -24.5041 
         -50      72.3915 -2.04467e-05 -1.63833e-05     -24.4986 
         -50      72.7613  -2.0333e-05 -1.62577e-05     -24.4932 
         -50       73.132 -2.02231e-05 -1.61382e-05     -24.4877 
         -50      73.5036 -2.01183e-05 -1.60274e-05     -24.4822 
         -50      73.8764 -2.00189e-05 -1.59265e-05     -24.4768 
         -50      74.2499 -1.99249e-05 -1.58354e-05     -24.4713 
         -50      74.6244 -1.98353e-05 -1.57527e-05     -24.4659 
         -50           75 -1.97486e-05 -1.56761e-05     -24.4605 
         -25            0  -4.4394e-20 -3.60605e-24     -24.5246 
         -25     0.000471  -4.3416e-06 -3.61907e-10     -24.5246 
         -25     0.001884 -1.53761e-05 -1.38877e-09     -24.5246 
         -25     0.004239 -2.81779e-05 -2.93293e-09     -24.5246 
         -25     0.007537 -3.74953e-05 -4.83168e-09     -24.5246 
         -25     0.011776 -4.05483e-05 -6.98728e-09     -24.5246 
         -25     0.016958 -3.84458e-05 -9.41993e-09     -24.5246 
         -25     0.023081 -3.51504e-05 -1.22502e-08     -24.5246 
         -25      0.03015 -3.43524e-05 -1.56311e-08     -24.5246 
         -25     0.038157 -3.62352e-05 -1.96478e-08     -24.5246 
         -25     0.047107 -3.72006e-05 -2.42885e-08     -24.5246 
         -25     0.056999 -3.45807e-05 -2.94838e-08     -24.5246 
         -25     0.067837 -3.29381e-05 -3.51542e-08     -24.5246 
         -25     0.079614 -3.57386e-05 -4.08251e-08     -24.5246 
         -25     0.092332 -3.32631e-05 -4.60992e-08     -24.5246 
         -25     0.105992 -3.33069e-05 -5.10629e-08     -24.5246 
         -25       0.1206  -3.2877e-05 -5.50178e-08     -24.5246 
         -25     0.136145 -3.25627e-05 -5.74939e-08     -24.5246 
         -25     0.152631 -3.25246e-05 -5.79855e-08     -24.5246 
         -25     0.170067 -3.26333e-05  -5.5952e-08     -24.5246 
         -25     0.188438 -3.27233e-05 -5.08377e-08     -24.5246 
         -25     0.207751 -3.28408e-05 -4.20948e-08     -24.5246 
         -25     0.228006 -3.32291e-05 -2.92383e-08     -24.5246 
         -25     0.249212 -3.36178e-05 -1.19364e-08     -24.5246 
         -25     0.271351 -3.41499e-05  9.69764e-09     -24.5246 
         -25     0.294433 -3.47474e-05  3.75199e-08     -24.5246 
         -25     0.318456 -3.53904e-05  7.20395e-08     -24.5246 
         -25     0.343432  -3.6077e-05  1.13587e-07     -24.5246 
         -25     0.369339 -3.67948e-05  1.62283e-07     -24.5246 
         -25     0.396189 -3.75255e-05  2.18184e-07     -24.5246 
         -25     0.423981 -3.82462e-05  2.81263e-07     -24.5246 
         -25     0.452726 -3.89346e-05  3.51528e-07     -24.5246 
         -25     0.482403 -3.95713e-05  4.28975e-07     -24.5246 
         -25     0.513021 -4.01442e-05  5.13796e-07     -24.5246 
         -25     0.544594 -4.06471e-05  6.06339e-07     -24.5246 
         -25     0.577096 -4.10736e-05   7.0692e-07     -24.5246 
         -25     0.610541 -4.14066e-05  8.17469e-07     -24.5246 
         -25     0.644927 -4.16714e-05  9.65588e-07     -24.5246 
         -25      0.68027  -4.1854e-05  1.11399e-06     -24.5246 
         -25     0.716541 -4.19645e-05  1.26098e-06     -24.5246 
         -25     0.753754 -4.20148e-05  1.40561e-06     -24.5245 
         -25     0.791909 -4.20182e-05  1.54735e-06     -24.5245 
         -25     0.831022 -4.19885e-05  1.68622e-06     -24.5245 
         -25     0.871061 -4.19397e-05  1.82247e-06     -24.5245 
         -25     0.912043 -4.18855e-05  1.95682e-06     -24.5245 
         -25     0.953966 -4.18383e-05  2.09009e-06     -24.5245 
         -25     0.996849 -4.18084e-05  2.22318e-06     -24.5245 
         -25      1.04066 -4.18035e-05   2.3567e-06     -24.5245 
         -25      1.08541 -4.18275e-05  2.49113e-06     -24.5244 
         -25      1.13112 -4.18803e-05  2.62653e-06     -24.5244 
         -25      1.17775 -4.19569e-05  2.76228e-06     -24.5244 
         -25      1.22533  -4.2047e-05  2.89737e-06     -24.5244 
         -25      1.27384 -4.21356e-05  3.03029e-06     -24.5244 