Variables = x, y, u, v, p

Zone, I=20800, F=POINT
         -50            0            0            0 -6.68361e-05 
         -50     0.000234 -7.43869e-09  2.48647e-11  -6.6836e-05 
         -50     0.000939 -3.13743e-08  1.70882e-10 -6.68359e-05 
         -50     0.002113 -7.62444e-08  6.50638e-10 -6.68356e-05 
         -50     0.003759 -1.49465e-07  1.81951e-09 -6.68352e-05 
         -50     0.005872 -2.60552e-07  4.16391e-09 -6.68348e-05 
         -50     0.008457 -4.21526e-07  8.30878e-09 -6.68343e-05 
         -50      0.01151 -6.45396e-07  1.49843e-08 -6.68336e-05 
         -50     0.015036 -9.46685e-07  2.50374e-08 -6.68329e-05 
         -50     0.019031 -1.33945e-06  3.93677e-08 -6.68322e-05 
         -50     0.023493 -1.83728e-06  5.89178e-08 -6.68313e-05 
         -50     0.028429 -2.45369e-06  8.46912e-08 -6.68305e-05 
         -50     0.033831  -3.1985e-06   1.1761e-07 -6.68296e-05 
         -50     0.039706   -4.081e-06  1.58654e-07 -6.68287e-05 
         -50     0.046047 -5.10537e-06  2.08677e-07 -6.68278e-05 
         -50     0.052863 -6.27478e-06  2.68617e-07 -6.68268e-05 
         -50      0.06015 -7.58642e-06  3.39245e-07  -6.6826e-05 
         -50       0.0679 -9.03253e-06  4.21134e-07 -6.68251e-05 
         -50     0.076126 -1.06053e-05  5.14733e-07 -6.68244e-05 
         -50     0.084816 -1.22887e-05   6.1945e-07 -6.68238e-05 
         -50     0.093982 -1.40673e-05   7.3717e-07  -6.6823e-05 
         -50     0.103611 -1.59173e-05  8.67951e-07 -6.68226e-05 
         -50     0.113718 -1.78192e-05  1.01042e-06 -6.68224e-05 
         -50     0.124286  -1.9745e-05  1.16346e-06 -6.68223e-05 
         -50     0.135333 -2.16722e-05  1.32712e-06 -6.68224e-05 
         -50      0.14685 -2.35728e-05  1.50152e-06 -6.68226e-05 
         -50     0.158827 -2.54196e-05  1.68686e-06  -6.6823e-05 
         -50     0.171284 -2.71914e-05  1.88356e-06 -6.68236e-05 
         -50     0.184201 -2.88631e-05  2.09082e-06 -6.68246e-05 
         -50     0.197599 -3.04182e-05  2.30785e-06  -6.6826e-05 
         -50     0.211455 -3.18379e-05    2.533e-06 -6.68278e-05 
         -50     0.225792 -3.31116e-05  2.76671e-06 -6.68298e-05 
         -50       0.2406 -3.42277e-05  3.01325e-06 -6.68313e-05 
         -50     0.255865 -3.51753e-05  3.27768e-06 -6.68338e-05 
         -50     0.271613 -3.59499e-05  3.52932e-06 -6.68383e-05 
         -50     0.287818 -3.65501e-05  3.76351e-06 -6.68412e-05 
         -50     0.304506 -3.69784e-05  3.98218e-06 -6.68434e-05 
         -50      0.32165 -3.72388e-05  4.19026e-06 -6.68454e-05 
         -50     0.339278 -3.73395e-05  4.39678e-06 -6.68478e-05 
         -50     0.357377 -3.72895e-05  4.61301e-06 -6.68511e-05 
         -50      0.37593 -3.70996e-05  4.85186e-06 -6.68558e-05 
         -50     0.394968 -3.67796e-05  5.12712e-06  -6.6862e-05 
         -50     0.414461 -3.63393e-05  5.45001e-06   -6.687e-05 
         -50      0.43444 -3.57849e-05  5.82856e-06 -6.68795e-05 
         -50     0.454872 -3.51213e-05  6.26243e-06 -6.68902e-05 
         -50     0.475791  -3.4348e-05  6.74185e-06 -6.69017e-05 
         -50     0.497163 -3.34635e-05  7.24056e-06 -6.69131e-05 
         -50     0.519021 -3.24619e-05  7.71404e-06 -6.69236e-05 
         -50      0.54135 -3.13391e-05   8.0914e-06 -6.69319e-05 
         -50     0.564131 -3.00963e-05   8.2709e-06 -6.69367e-05 
         -50       0.5874 -2.87418e-05  8.11364e-06 -6.69367e-05 
         -50     0.611121 -2.72958e-05  7.47132e-06  -6.6926e-05 
         -50      0.63533 -2.57068e-05  7.03162e-06 -6.68792e-05 
         -50      0.65999 -2.41229e-05   6.8385e-06 -6.68464e-05 
         -50     0.685139  -2.2546e-05  6.85388e-06 -6.68253e-05 
         -50     0.710759 -2.09824e-05   7.0405e-06 -6.68135e-05 
         -50     0.736828 -1.94396e-05  7.36144e-06 -6.68089e-05 
         -50     0.763387 -1.79217e-05  7.78202e-06 -6.68091e-05 
         -50     0.790396 -1.64379e-05  8.26839e-06  -6.6812e-05 
         -50     0.817896 -1.49932e-05  8.79049e-06 -6.68157e-05 
         -50     0.845843 -1.35972e-05  9.31964e-06 -6.68184e-05 
         -50     0.874283 -1.22544e-05  9.83221e-06 -6.68184e-05 
         -50      0.90317 -1.09731e-05  1.03067e-05 -6.68142e-05 
         -50     0.932551 -9.75661e-06  1.07272e-05 -6.68047e-05 
         -50     0.962401 -8.61012e-06  1.10812e-05 -6.67889e-05 
         -50     0.992697 -7.53704e-06  1.13607e-05 -6.67662e-05 
         -50      1.02349  -6.5365e-06  1.15633e-05 -6.67361e-05 
         -50      1.05472  -5.6091e-06  1.16902e-05 -6.66984e-05 
         -50      1.08645 -4.75018e-06  1.17476e-05 -6.66533e-05 
         -50      1.11863 -3.95595e-06  1.17455e-05 -6.66012e-05 
         -50       1.1513 -3.21789e-06  1.16976e-05 -6.65427e-05 
         -50      1.18444 -2.52769e-06  1.16203e-05 -6.64784e-05 
         -50      1.21802 -1.87558e-06  1.15321e-05 -6.64094e-05 
         -50      1.25211 -1.24957e-06   1.1452e-05 -6.63367e-05 
         -50      1.28663  -6.4009e-07  1.13986e-05 -6.62613e-05 
         -50      1.32165 -3.71389e-08  1.13876e-05 -6.61841e-05 
         -50      1.35712  5.63978e-07  1.14304e-05  -6.6106e-05 
         -50      1.39308  1.16448e-06  1.15316e-05 -6.60273e-05 
         -50      1.42951  1.75605e-06  1.16855e-05  -6.5948e-05 
         -50      1.46638  2.31897e-06  1.18734e-05 -6.58675e-05 
         -50      1.50375  2.81953e-06  1.20602e-05 -6.57843e-05 
         -50      1.54156  3.35709e-06  1.19721e-05 -6.56949e-05 
         -50      1.57987  3.88922e-06  1.18726e-05 -6.56005e-05 
         -50      1.61863   4.4043e-06  1.17788e-05 -6.55016e-05 
         -50      1.65788  4.89983e-06  1.16878e-05 -6.53981e-05 
         -50      1.69757  5.37203e-06  1.15973e-05 -6.52906e-05 
         -50      1.73776  5.81904e-06  1.15051e-05 -6.51791e-05 
         -50      1.77842  6.23825e-06  1.14092e-05 -6.50639e-05 
         -50      1.81952  6.62746e-06  1.13081e-05 -6.49454e-05 
         -50      1.86113  6.98581e-06  1.12004e-05 -6.48237e-05 
         -50      1.90316   7.3116e-06  1.10852e-05 -6.46992e-05 
         -50      1.94571  7.60462e-06  1.09614e-05  -6.4572e-05 
         -50      1.98869    7.864e-06  1.08289e-05 -6.44426e-05 
         -50      2.03217  8.09013e-06   1.0687e-05 -6.43109e-05 
         -50      2.07612  8.28308e-06   1.0536e-05 -6.41774e-05 
         -50      2.12051  8.44338e-06  1.03762e-05 -6.40425e-05 
         -50       2.1654  8.57217e-06  1.02076e-05  -6.3906e-05 
         -50      2.21073  8.67045e-06  1.00312e-05 -6.37686e-05 
         -50      2.25656  8.73979e-06  9.84738e-06 -6.36303e-05 
         -50      2.30283   8.7817e-06  9.65737e-06 -6.34914e-05 
         -50       2.3496  8.79805e-06  9.46181e-06  -6.3352e-05 
         -50      2.39685  8.79072e-06  9.26189e-06 -6.32124e-05 
         -50      2.44452  8.76179e-06  9.05883e-06 -6.30729e-05 
         -50      2.49271  8.71329e-06  8.85339e-06 -6.29334e-05 
         -50      2.54132  8.64739e-06  8.64692e-06 -6.27945e-05 
         -50      2.59044  8.56607e-06  8.44009e-06 -6.26559e-05 
         -50         2.64  8.47146e-06   8.2341e-06 -6.25182e-05 
         -50      2.69006  8.36531e-06  8.02939e-06 -6.23811e-05 
         -50      2.74056  8.24956e-06  7.82691e-06 -6.22451e-05 
         -50      2.79156  8.12562e-06   7.6268e-06 -6.21101e-05 
         -50      2.84304  7.99499e-06  7.42949e-06 -6.19762e-05 
         -50      2.89494  7.85895e-06  7.23525e-06 -6.18436e-05 
         -50      2.94735  7.71825e-06  7.04366e-06 -6.17123e-05 
         -50       3.0002  7.57383e-06  6.85478e-06 -6.15825e-05 
         -50      3.05355  7.42597e-06   6.6679e-06  -6.1454e-05 
         -50      3.10733  7.27522e-06  6.48279e-06  -6.1327e-05 
         -50      3.16163  7.12147e-06  6.29858e-06 -6.12015e-05 
         -50      3.21639  6.96489e-06  6.11483e-06 -6.10775e-05 
         -50      3.27158   6.8056e-06  5.93123e-06 -6.09551e-05 
         -50      3.32729  6.64344e-06  5.74719e-06 -6.08342e-05 
         -50      3.38342  6.47892e-06   5.5631e-06  -6.0715e-05 
         -50      3.44007   6.3124e-06  5.37924e-06 -6.05973e-05 
         -50      3.49714  6.14526e-06   5.1972e-06 -6.04813e-05 
         -50      3.55472  5.97914e-06  5.01891e-06 -6.03669e-05 
         -50      3.61273  5.81717e-06  4.84807e-06 -6.02542e-05 
         -50      3.67125   5.6633e-06  4.68937e-06 -6.01432e-05 
         -50      3.73025  5.52351e-06  4.54975e-06  -6.0034e-05 
         -50      3.78967  5.38127e-06   4.4074e-06 -5.99273e-05 
         -50      3.84961  5.23434e-06   4.2555e-06 -5.98218e-05 
         -50      3.90996  5.09123e-06  4.10424e-06 -5.97178e-05 
         -50      3.97084  4.95044e-06  3.95836e-06 -5.96165e-05 
         -50      4.03214  4.81146e-06  3.81702e-06 -5.95167e-05 
         -50      4.09395  4.67422e-06  3.67901e-06 -5.94182e-05 
         -50      4.15624  4.53896e-06  3.54408e-06 -5.93211e-05 
         -50      4.21895  4.40592e-06   3.4121e-06 -5.92256e-05 
         -50      4.28217  4.27503e-06  3.28273e-06 -5.91316e-05 
         -50      4.34582  4.14663e-06   3.1561e-06 -5.90393e-05 
         -50      4.40998  4.02062e-06  3.03203e-06 -5.89487e-05 
         -50      4.47457  3.89731e-06  2.91074e-06 -5.88599e-05 
         -50      4.53968  3.77656e-06  2.79212e-06 -5.87727e-05 
         -50      4.60525  3.65851e-06  2.67633e-06 -5.86874e-05 
         -50      4.67125  3.54325e-06  2.56356e-06 -5.86039e-05 
         -50      4.73777  3.43057e-06  2.45368e-06  -5.8522e-05 
         -50       4.8047  3.32057e-06  2.34689e-06  -5.8442e-05 
         -50      4.87216  3.21298e-06  2.24302e-06 -5.83636e-05 
         -50      4.94003  3.10784e-06  2.14221e-06 -5.82869e-05 
         -50      5.00843  3.00483e-06  2.04419e-06 -5.82117e-05 
         -50      5.07724  2.90399e-06  1.94903e-06 -5.81382e-05 
         -50      5.14658    2.805e-06  1.85641e-06 -5.80662e-05 
         -50      5.21639  2.70784e-06  1.76626e-06 -5.79956e-05 
         -50      5.28661  2.61254e-06  1.67849e-06 -5.79265e-05 
         -50      5.35736  2.51896e-06  1.59286e-06 -5.78588e-05 
         -50      5.42852  2.42742e-06  1.50944e-06 -5.77926e-05 
         -50      5.50021  2.33807e-06  1.42819e-06 -5.77277e-05 
         -50      5.57231  2.25158e-06  1.34946e-06 -5.76644e-05 
         -50      5.64493  2.16859e-06   1.2736e-06 -5.76024e-05 
         -50      5.71803  2.08652e-06  1.19867e-06 -5.75423e-05 
         -50      5.79154  2.00722e-06  1.12677e-06 -5.74838e-05 
         -50      5.86558   1.9301e-06  1.05707e-06 -5.74265e-05 
         -50      5.94003  1.85496e-06  9.89399e-07 -5.73706e-05 
         -50      6.01501  1.78145e-06  9.23652e-07 -5.73159e-05 
         -50       6.0904  1.70953e-06   8.6011e-07 -5.72623e-05 
         -50      6.16632  1.63899e-06  7.98886e-07 -5.72099e-05 
         -50      6.24271  1.56987e-06  7.40188e-07 -5.71586e-05 
         -50       6.3195  1.50227e-06  6.84082e-07 -5.71085e-05 
         -50      6.39683  1.43619e-06  6.30298e-07 -5.70596e-05 
         -50      6.47457    1.372e-06  5.78527e-07 -5.70121e-05 
         -50      6.55284     1.31e-06  5.28068e-07  -5.6966e-05 
         -50      6.63152  1.25097e-06  4.78207e-07 -5.69219e-05 
         -50      6.71073   1.1958e-06  4.27976e-07   -5.688e-05 
         -50      6.79034  1.13759e-06  3.83423e-07 -5.68367e-05 
         -50      6.87049  1.07956e-06  3.41555e-07 -5.67938e-05 
         -50      6.95111  1.02474e-06  3.00262e-07 -5.67528e-05 
         -50      7.03214   9.7275e-07  2.60104e-07 -5.67135e-05 
         -50       7.1137  9.23148e-07  2.21372e-07 -5.66757e-05 
         -50      7.19566  8.75657e-07  1.84339e-07 -5.66393e-05 
         -50      7.27816  8.29883e-07  1.49031e-07 -5.66041e-05 
         -50      7.36106  7.85621e-07  1.15489e-07 -5.65699e-05 
         -50      7.44451  7.42568e-07  8.35698e-08 -5.65367e-05 
         -50      7.52842  7.00576e-07  5.31711e-08 -5.65044e-05 
         -50      7.61273  6.59552e-07  2.41751e-08 -5.64729e-05 
         -50      7.69758  6.19361e-07 -3.57957e-09  -5.6442e-05 
         -50      7.78283  5.80056e-07 -3.00986e-08 -5.64119e-05 
         -50      7.86862  5.41622e-07   -5.537e-08 -5.63824e-05 
         -50      7.95481  5.04227e-07 -7.91485e-08 -5.63536e-05 
         -50      8.04155  4.67969e-07  -1.0107e-07 -5.63255e-05 
         -50      8.12868  4.34672e-07 -1.22611e-07 -5.62994e-05 
         -50      8.21635  4.02016e-07 -1.43155e-07 -5.62746e-05 
         -50      8.30449    3.698e-07 -1.62405e-07 -5.62505e-05 
         -50      8.39303   3.3838e-07 -1.80462e-07 -5.62271e-05 
         -50      8.48211  3.07952e-07   -1.974e-07 -5.62042e-05 
         -50      8.57159  2.78721e-07 -2.13189e-07  -5.6182e-05 
         -50      8.66161  2.50713e-07 -2.27829e-07 -5.61603e-05 
         -50      8.75203  2.23978e-07 -2.41278e-07 -5.61391e-05 
         -50      8.84299  1.98432e-07 -2.53579e-07 -5.61184e-05 
         -50      8.93443  1.74039e-07 -2.64817e-07 -5.60984e-05 
         -50      9.02626  1.50791e-07 -2.75196e-07 -5.60792e-05 
         -50      9.11863  1.28709e-07 -2.85106e-07  -5.6061e-05 
         -50      9.21139  1.08037e-07 -2.95111e-07 -5.60441e-05 
         -50      9.30471   8.9187e-08 -3.06071e-07 -5.60287e-05 
         -50      9.39841   6.9813e-08 -3.14435e-07 -5.60129e-05 
         -50      9.49267  4.97589e-08 -3.20449e-07 -5.59959e-05 
         -50      9.58739  3.13982e-08 -3.27724e-07   -5.598e-05 
         -50      9.68251  1.43129e-08 -3.35545e-07  -5.5965e-05 
         -50      9.77817 -1.85529e-09 -3.43364e-07 -5.59507e-05 
         -50      9.87422 -1.73235e-08 -3.50746e-07 -5.59372e-05 
         -50      9.97083  -3.2282e-08 -3.57401e-07 -5.59243e-05 
         -50      10.0678 -4.68063e-08 -3.63122e-07  -5.5912e-05 
         -50      10.1654 -6.09646e-08 -3.67813e-07 -5.59001e-05 
         -50      10.2633 -7.47349e-08 -3.71436e-07 -5.58887e-05 
         -50      10.3618 -8.81063e-08 -3.74029e-07 -5.58777e-05 
         -50      10.4607 -1.01011e-07 -3.75668e-07 -5.58671e-05 
         -50      10.5601 -1.13368e-07 -3.76466e-07 -5.58568e-05 
         -50        10.66 -1.25122e-07 -3.76559e-07 -5.58468e-05 
         -50      10.7603 -1.36179e-07 -3.76089e-07  -5.5837e-05 
         -50      10.8611 -1.46493e-07 -3.75199e-07 -5.58276e-05 
         -50      10.9623    -1.56e-07 -3.74021e-07 -5.58185e-05 
         -50      11.0641 -1.64686e-07 -3.72664e-07 -5.58096e-05 
         -50      11.1663  -1.7254e-07 -3.71214e-07  -5.5801e-05 
         -50       11.269  -1.7958e-07 -3.69725e-07 -5.57928e-05 
         -50      11.3721 -1.85867e-07 -3.68213e-07 -5.57848e-05 
         -50      11.4757 -1.91465e-07 -3.66661e-07 -5.57772e-05 
         -50      11.5798 -1.96482e-07 -3.65014e-07 -5.57699e-05 
         -50      11.6844 -2.01026e-07 -3.63187e-07  -5.5763e-05 
         -50      11.7894 -2.05229e-07 -3.61066e-07 -5.57565e-05 
         -50       11.895 -2.09213e-07 -3.58524e-07 -5.57503e-05 
         -50      12.0009 -2.13088e-07 -3.55432e-07 -5.57445e-05 
         -50      12.1073 -2.16944e-07 -3.51664e-07 -5.57391e-05 
         -50      12.2142 -2.20811e-07 -3.47137e-07 -5.57341e-05 
         -50      12.3216 -2.24665e-07  -3.4181e-07 -5.57295e-05 
         -50      12.4294 -2.28373e-07 -3.35741e-07 -5.57253e-05 
         -50      12.5378 -2.31689e-07 -3.29087e-07 -5.57213e-05 
         -50      12.6465 -2.35888e-07 -3.24637e-07 -5.57165e-05 
         -50      12.7558 -2.44129e-07 -3.23938e-07 -5.57101e-05 
         -50      12.8656 -2.44802e-07 -3.16741e-07 -5.57057e-05 
         -50      12.9757 -2.46165e-07 -3.08592e-07 -5.57017e-05 
         -50      13.0864 -2.46229e-07 -3.04779e-07 -5.56985e-05 
         -50      13.1975 -2.46604e-07 -3.00665e-07 -5.56953e-05 
         -50      13.3092 -2.47091e-07 -2.96291e-07 -5.56922e-05 
         -50      13.4212 -2.47547e-07 -2.91716e-07  -5.5689e-05 
         -50      13.5338 -2.47881e-07 -2.86985e-07 -5.56859e-05 
         -50      13.6468  -2.4804e-07 -2.82158e-07 -5.56829e-05 
         -50      13.7603 -2.48005e-07 -2.77287e-07   -5.568e-05 
         -50      13.8743 -2.47784e-07 -2.72411e-07 -5.56772e-05 
         -50      13.9886   -2.474e-07 -2.67575e-07 -5.56744e-05 
         -50      14.1036 -2.46891e-07 -2.62801e-07 -5.56718e-05 
         -50      14.2189 -2.46298e-07 -2.58114e-07 -5.56692e-05 
         -50      14.3348 -2.45663e-07 -2.53516e-07 -5.56666e-05 
         -50       14.451 -2.45024e-07  -2.4901e-07 -5.56642e-05 
         -50      14.5678 -2.44407e-07 -2.44576e-07 -5.56617e-05 
         -50      14.6851 -2.43828e-07 -2.40195e-07 -5.56593e-05 
         -50      14.8028 -2.43288e-07 -2.35837e-07 -5.56569e-05 
         -50       14.921 -2.42773e-07 -2.31459e-07 -5.56545e-05 
         -50      15.0396  -2.4225e-07 -2.27025e-07 -5.56521e-05 
         -50      15.1588 -2.41673e-07  -2.2249e-07 -5.56497e-05 
         -50      15.2783 -2.40984e-07 -2.17824e-07 -5.56472e-05 
         -50      15.3984 -2.40112e-07 -2.12996e-07 -5.56447e-05 
         -50       15.519 -2.38986e-07 -2.08001e-07 -5.56422e-05 
         -50        15.64 -2.37537e-07 -2.02861e-07 -5.56397e-05 
         -50      15.7615 -2.35704e-07 -1.97615e-07 -5.56372e-05 
         -50      15.8834 -2.33453e-07 -1.92365e-07 -5.56347e-05 
         -50      16.0058 -2.30779e-07 -1.87247e-07 -5.56323e-05 
         -50      16.1286 -2.27732e-07  -1.8248e-07 -5.56301e-05 
         -50       16.252 -2.24421e-07 -1.78345e-07  -5.5628e-05 
         -50      16.3759 -2.21043e-07  -1.7523e-07 -5.56263e-05 
         -50      16.5002 -2.17907e-07 -1.73628e-07 -5.56249e-05 
         -50       16.625 -2.15441e-07  -1.7416e-07  -5.5624e-05 
         -50      16.7501 -2.13726e-07 -1.71196e-07 -5.56231e-05 
         -50      16.8759 -2.11925e-07 -1.62329e-07 -5.56213e-05 
         -50       17.002 -2.10224e-07 -1.54512e-07 -5.56193e-05 
         -50      17.1287 -2.08587e-07 -1.47617e-07 -5.56172e-05 
         -50      17.2557 -2.06976e-07 -1.41529e-07  -5.5615e-05 
         -50      17.3834 -2.05345e-07 -1.36115e-07 -5.56127e-05 
         -50      17.5115 -2.03649e-07  -1.3125e-07 -5.56104e-05 
         -50      17.6399 -2.01847e-07 -1.26816e-07 -5.56082e-05 
         -50       17.769 -1.99895e-07 -1.22685e-07  -5.5606e-05 
         -50      17.8984 -1.97763e-07 -1.18756e-07 -5.56039e-05 
         -50      18.0284 -1.95423e-07 -1.14921e-07 -5.56018e-05 
         -50      18.1587 -1.92863e-07 -1.11103e-07 -5.55998e-05 
         -50      18.2896 -1.90076e-07 -1.07224e-07 -5.55978e-05 
         -50       18.421 -1.87074e-07 -1.03234e-07 -5.55959e-05 
         -50      18.5528 -1.83883e-07 -9.91036e-08  -5.5594e-05 
         -50      18.6851 -1.80537e-07 -9.48113e-08  -5.5592e-05 
         -50      18.8178 -1.77096e-07 -9.03721e-08   -5.559e-05 
         -50      18.9511 -1.73623e-07 -8.58084e-08  -5.5588e-05 
         -50      19.0847 -1.70206e-07 -8.11794e-08 -5.55858e-05 
         -50      19.2189 -1.66938e-07 -7.65521e-08 -5.55834e-05 
         -50      19.3535 -1.63933e-07 -7.20294e-08 -5.55808e-05 
         -50      19.4886 -1.61307e-07 -6.77209e-08  -5.5578e-05 
         -50      19.6242  -1.5919e-07 -6.37661e-08 -5.55748e-05 
         -50      19.7602 -1.57716e-07 -6.03208e-08 -5.55714e-05 
         -50      19.8968 -1.57019e-07 -5.75473e-08 -5.55675e-05 
         -50      20.0337  -1.5723e-07 -5.56294e-08 -5.55632e-05 
         -50      20.1712 -1.58475e-07 -5.47512e-08 -5.55584e-05 
         -50      20.3091 -1.58902e-07 -5.43392e-08 -5.55541e-05 
         -50      20.4475  -1.5353e-07 -5.08008e-08 -5.55527e-05 
         -50      20.5864 -1.48791e-07  -4.6099e-08 -5.55514e-05 
         -50      20.7257 -1.44787e-07 -4.12107e-08 -5.55501e-05 
         -50      20.8655 -1.41654e-07 -3.74037e-08 -5.55489e-05 
         -50      21.0058 -1.39599e-07 -3.63136e-08 -5.55476e-05 
         -50      21.1465  -1.3889e-07 -3.99829e-08 -5.55462e-05 
         -50      21.2877 -1.32132e-07 -3.85334e-08 -5.55432e-05 
         -50      21.4294 -1.25721e-07 -3.25446e-08 -5.55389e-05 
         -50      21.5716  -1.2612e-07 -3.28985e-08 -5.55351e-05 
         -50      21.7142 -1.27245e-07 -3.36004e-08 -5.55314e-05 
         -50      21.8573 -1.25312e-07 -3.04207e-08 -5.55275e-05 
         -50      22.0008 -1.20447e-07 -2.41605e-08 -5.55237e-05 
         -50      22.1449  -1.1866e-07 -2.29382e-08 -5.55207e-05 
         -50      22.2893 -1.17294e-07 -2.18398e-08 -5.55175e-05 
         -50      22.4344 -1.16105e-07 -2.06949e-08 -5.55143e-05 
         -50      22.5797 -1.14912e-07 -1.94072e-08 -5.55109e-05 
         -50      22.7257 -1.13587e-07 -1.79309e-08 -5.55075e-05 
         -50      22.8721 -1.12053e-07 -1.62642e-08 -5.55041e-05 
         -50      23.0189 -1.10274e-07 -1.44333e-08 -5.55005e-05 
         -50      23.1663 -1.08246e-07 -1.24756e-08 -5.54969e-05 
         -50       23.314 -1.05996e-07 -1.04402e-08 -5.54933e-05 
         -50      23.4623 -1.03569e-07 -8.36728e-09 -5.54895e-05 
         -50       23.611  -1.0103e-07 -6.29344e-09 -5.54857e-05 
         -50      23.7602 -9.84459e-08 -4.23425e-09 -5.54817e-05 
         -50        23.91 -9.58913e-08 -2.19262e-09 -5.54776e-05 
         -50        24.06 -9.34381e-08 -1.53215e-10 -5.54735e-05 
         -50      24.2107 -9.11429e-08  1.92092e-09 -5.54692e-05 
         -50      24.3617  -8.9055e-08  4.07272e-09 -5.54647e-05 
         -50      24.5133  -8.7197e-08  6.35784e-09 -5.54602e-05 
         -50      24.6653 -8.55732e-08   8.8212e-09 -5.54555e-05 
         -50      24.8178  -8.4153e-08  1.14993e-08 -5.54508e-05 
         -50      24.9708 -8.28759e-08  1.43912e-08  -5.5446e-05 
         -50      25.1242 -8.16441e-08  1.74447e-08 -5.54412e-05 
         -50      25.2781  -8.0316e-08  2.05421e-08 -5.54364e-05 
         -50      25.4324 -7.87107e-08  2.34566e-08 -5.54318e-05 
         -50      25.5873 -6.98026e-08  1.93334e-08 -5.54276e-05 
         -50      25.7426 -6.68403e-08  1.60515e-08 -5.54234e-05 
         -50      25.8984 -6.81956e-08  1.47395e-08 -5.54191e-05 
         -50      26.0546 -7.16396e-08  1.54597e-08 -5.54147e-05 
         -50      26.2114 -7.53966e-08  1.78984e-08 -5.54103e-05 
         -50      26.3686  -7.8162e-08  2.14396e-08 -5.54058e-05 
         -50      26.5262 -7.91211e-08  2.52694e-08 -5.54012e-05 
         -50      26.6844 -7.79323e-08  2.85321e-08 -5.53964e-05 
         -50      26.8429 -7.46817e-08   3.0489e-08 -5.53914e-05 
         -50       27.002 -6.98053e-08  3.07551e-08 -5.53862e-05 
         -50      27.1615 -6.40073e-08  2.95484e-08 -5.53808e-05 
         -50      27.3216 -5.80992e-08  2.79957e-08 -5.53752e-05 
         -50      27.4821 -5.28658e-08  2.84873e-08 -5.53697e-05 
         -50       27.643 -5.37453e-08   2.9157e-08 -5.53642e-05 
         -50      27.8044 -5.60841e-08  2.83696e-08 -5.53588e-05 
         -50      27.9663 -5.69182e-08  2.79545e-08 -5.53536e-05 
         -50      28.1287 -5.66649e-08  2.78249e-08 -5.53484e-05 
         -50      28.2914 -5.56729e-08  2.79082e-08 -5.53433e-05 
         -50      28.4548 -5.42273e-08  2.81442e-08 -5.53382e-05 
         -50      28.6185 -5.25606e-08  2.84833e-08 -5.53331e-05 
         -50      28.7828 -5.08497e-08  2.88868e-08  -5.5328e-05 
         -50      28.9475 -4.92296e-08  2.93242e-08 -5.53229e-05 
         -50      29.1126 -4.77949e-08  2.97728e-08 -5.53177e-05 
         -50      29.2784 -4.66012e-08  3.02177e-08 -5.53125e-05 
         -50      29.4444 -4.56781e-08  3.06485e-08 -5.53072e-05 
         -50       29.611 -4.50259e-08   3.1061e-08 -5.53018e-05 
         -50       29.778 -4.46269e-08  3.14536e-08 -5.52963e-05 
         -50      29.9456 -4.44448e-08  3.18289e-08 -5.52907e-05 
         -50      30.1137 -4.44323e-08  3.21907e-08  -5.5285e-05 
         -50      30.2821 -4.45332e-08  3.25445e-08 -5.52793e-05 
         -50      30.4511 -4.46871e-08  3.28969e-08 -5.52734e-05 
         -50      30.6204 -4.48321e-08  3.32538e-08 -5.52675e-05 
         -50      30.7903 -4.49089e-08  3.36215e-08 -5.52615e-05 
         -50      30.9606 -4.48632e-08   3.4004e-08 -5.52554e-05 
         -50      31.1315 -4.46478e-08  3.44051e-08 -5.52492e-05 
         -50      31.3028 -4.42254e-08  3.48257e-08  -5.5243e-05 
         -50      31.4745 -4.35709e-08  3.52648e-08 -5.52368e-05 
         -50      31.6468 -4.26702e-08  3.57199e-08 -5.52304e-05 
         -50      31.8194 -4.15255e-08   3.6185e-08 -5.52241e-05 
         -50      31.9926   -4.015e-08  3.66531e-08 -5.52177e-05 
         -50      32.1662 -3.85747e-08   3.7114e-08 -5.52114e-05 
         -50      32.3404 -3.68397e-08  3.75568e-08  -5.5205e-05 
         -50      32.5149 -3.50024e-08   3.7968e-08 -5.51986e-05 
         -50        32.69 -3.31256e-08  3.83347e-08 -5.51922e-05 
         -50      32.8655 -3.12842e-08  3.86429e-08 -5.51859e-05 
         -50      33.0414 -2.95587e-08  3.88794e-08 -5.51795e-05 
         -50       33.218 -2.80268e-08  3.90336e-08 -5.51732e-05 
         -50      33.3948 -2.67685e-08  3.90971e-08 -5.51668e-05 
         -50      33.5723 -2.58514e-08  3.90661e-08 -5.51605e-05 
         -50        33.75 -2.53325e-08  3.89427e-08 -5.51542e-05 
         -50      33.9284 -2.52458e-08  3.87363e-08 -5.51479e-05 
         -50      34.1073 -2.55984e-08  3.84661e-08 -5.51415e-05 
         -50      34.2865  -2.6359e-08  3.81631e-08 -5.51351e-05 
         -50      34.4663 -2.74517e-08  3.78714e-08 -5.51286e-05 
         -50      34.6465  -2.8741e-08  3.76527e-08 -5.51221e-05 
         -50      34.8272 -3.00268e-08  3.75871e-08 -5.51154e-05 
         -50      35.0083  -2.7021e-08  3.71804e-08 -5.51085e-05 
         -50        35.19 -2.04674e-08  3.64682e-08 -5.51018e-05 
         -50      35.3721 -1.32294e-08  3.58674e-08 -5.50952e-05 
         -50      35.5546 -8.46006e-09  3.53163e-08 -5.50888e-05 
         -50      35.7377 -1.79788e-08  3.42077e-08 -5.50819e-05 
         -50      35.9211 -2.43179e-08  3.26495e-08  -5.5075e-05 
         -50      36.1052 -2.80371e-08  3.06723e-08 -5.50681e-05 
         -50      36.2895  -2.9634e-08  2.83272e-08 -5.50613e-05 
         -50      36.4745 -2.95702e-08  2.56727e-08 -5.50545e-05 
         -50      36.6598 -2.82608e-08  2.27873e-08 -5.50477e-05 
         -50      36.8457 -2.59346e-08  2.00757e-08 -5.50408e-05 
         -50      37.0321 -2.11949e-08  2.28258e-08 -5.50336e-05 
         -50      37.2188 -1.71517e-08  2.53942e-08 -5.50264e-05 
         -50      37.4062 -1.38472e-08  2.76873e-08 -5.50192e-05 
         -50      37.5938 -1.12926e-08  2.96359e-08  -5.5012e-05 
         -50      37.7821 -9.45468e-09   3.1205e-08 -5.50048e-05 
         -50      37.9707 -8.27898e-09  3.23781e-08 -5.49975e-05 
         -50      38.1599 -7.68497e-09  3.31629e-08 -5.49903e-05 
         -50      38.3496  -7.5802e-09  3.35803e-08  -5.4983e-05 
         -50      38.5396  -7.8617e-09  3.36652e-08 -5.49757e-05 
         -50      38.7302 -8.42386e-09  3.34618e-08 -5.49683e-05 
         -50      38.9211 -9.16135e-09   3.3021e-08  -5.4961e-05 
         -50      39.1127  -9.9767e-09  3.23958e-08 -5.49536e-05 
         -50      39.3046 -1.07799e-08  3.16419e-08 -5.49463e-05 
         -50      39.4971 -1.14965e-08  3.08112e-08 -5.49389e-05 
         -50      39.6899 -1.20653e-08  2.99543e-08 -5.49316e-05 
         -50      39.8833 -1.24451e-08  2.91137e-08 -5.49242e-05 
         -50      40.0772 -1.26119e-08  2.83271e-08 -5.49168e-05 
         -50      40.2714 -1.25618e-08  2.76239e-08 -5.49095e-05 
         -50      40.4663 -1.23101e-08  2.70229e-08 -5.49022e-05 
         -50      40.6615 -1.18904e-08  2.65357e-08 -5.48948e-05 
         -50      40.8573 -1.13513e-08  2.61627e-08 -5.48875e-05 
         -50      41.0534 -1.07561e-08  2.58966e-08 -5.48802e-05 
         -50      41.2501 -1.01756e-08  2.57211e-08 -5.48729e-05 
         -50      41.4473 -9.68647e-09  2.56133e-08 -5.48657e-05 
         -50      41.6448 -9.36351e-09   2.5545e-08 -5.48584e-05 
         -50      41.8429 -9.27232e-09  2.54848e-08 -5.48511e-05 
         -50      42.0414 -9.46242e-09  2.54013e-08 -5.48438e-05 
         -50      42.2405 -9.95752e-09  2.52656e-08 -5.48365e-05 
         -50      42.4399 -1.07436e-08  2.50562e-08 -5.48292e-05 
         -50      42.6399 -1.17602e-08  2.47621e-08 -5.48218e-05 
         -50      42.8404 -1.28833e-08  2.43892e-08 -5.48143e-05 
         -50      43.0412 -1.39121e-08  2.39652e-08 -5.48068e-05 
         -50      43.2426 -1.45561e-08  2.35455e-08 -5.47991e-05 
         -50      43.4444 -1.44123e-08  2.32219e-08 -5.47913e-05 
         -50      43.6467  -1.2949e-08  2.31279e-08 -5.47834e-05 
         -50      43.8494 -9.48777e-09  2.34494e-08 -5.47752e-05 
         -50      44.0527 -3.16932e-09  2.44335e-08 -5.47668e-05 
         -50      44.2563  6.82081e-09  2.62787e-08 -5.47581e-05 
         -50      44.4606   8.1213e-09  2.37674e-08 -5.47507e-05 
         -50      44.6653  7.58589e-09  2.16156e-08 -5.47432e-05 
         -50      44.8704  5.76021e-09  1.98564e-08 -5.47357e-05 
         -50       45.076  3.11409e-09  1.85037e-08 -5.47281e-05 
         -50       45.282  5.78961e-11  1.75629e-08 -5.47206e-05 
         -50      45.4886 -3.06782e-09  1.70229e-08  -5.4713e-05 
         -50      45.6955 -5.96772e-09  1.68641e-08 -5.47054e-05 
         -50       45.903 -8.40366e-09  1.70564e-08 -5.46977e-05 
         -50      46.1111 -1.01699e-08  1.75627e-08 -5.46899e-05 
         -50      46.3194 -1.10935e-08    1.834e-08 -5.46821e-05 
         -50      46.5283 -1.10239e-08  1.93444e-08 -5.46743e-05 
         -50      46.7376 -9.81845e-09  2.05295e-08 -5.46663e-05 
         -50      46.9475 -7.32932e-09  2.18556e-08 -5.46582e-05 
         -50      47.1577 -3.39786e-09  2.32856e-08   -5.465e-05 
         -50      47.3685 -1.04791e-09  2.25523e-08 -5.46419e-05 
         -50      47.5798 -2.73923e-09  1.90155e-08  -5.4634e-05 
         -50      47.7914 -3.41358e-09  1.66985e-08 -5.46262e-05 
         -50      48.0037 -3.31094e-09  1.53829e-08 -5.46184e-05 