Variables = x, y, u, v, p

Zone, I=20800, F=POINT
         -50            0            0            0 -0.000764663 
         -50     0.000234 -7.64445e-09 -1.25069e-11 -0.000764663 
         -50     0.000939 -2.82904e-08 -1.46149e-10 -0.000764663 
         -50     0.002113 -5.48094e-08 -6.86233e-10 -0.000764664 
         -50     0.003759 -7.57515e-08 -2.10409e-09 -0.000764664 
         -50     0.005872 -7.55621e-08 -5.03771e-09 -0.000764665 
         -50     0.008457 -3.53092e-08 -1.02982e-08 -0.000764665 
         -50      0.01151  6.66428e-08 -1.88313e-08 -0.000764666 
         -50     0.015036  2.54153e-07 -3.17421e-08 -0.000764667 
         -50     0.019031  5.51827e-07   -5.023e-08 -0.000764668 
         -50     0.023493  9.84313e-07 -7.55966e-08 -0.000764669 
         -50     0.028429  1.57648e-06 -1.09284e-07  -0.00076467 
         -50     0.033831   2.3498e-06 -1.52695e-07 -0.000764672 
         -50     0.039706  3.32503e-06 -2.07356e-07 -0.000764673 
         -50     0.046047  4.51722e-06 -2.74642e-07 -0.000764674 
         -50     0.052863  5.94001e-06 -3.56007e-07 -0.000764675 
         -50      0.06015  7.59965e-06 -4.52647e-07 -0.000764677 
         -50       0.0679  9.49562e-06 -5.65556e-07 -0.000764678 
         -50     0.076126   1.1627e-05 -6.96025e-07 -0.000764679 
         -50     0.084816  1.39814e-05 -8.45219e-07 -0.000764681 
         -50     0.093982  1.65466e-05 -1.01252e-06 -0.000764682 
         -50     0.103611  1.92988e-05 -1.19792e-06 -0.000764683 
         -50     0.113718  2.22174e-05  -1.4027e-06 -0.000764683 
         -50     0.124286  2.52689e-05 -1.62646e-06 -0.000764684 
         -50     0.135333  2.84269e-05 -1.86855e-06 -0.000764685 
         -50      0.14685  3.16552e-05 -2.12703e-06 -0.000764685 
         -50     0.158827  3.49165e-05 -2.39967e-06 -0.000764685 
         -50     0.171284  3.81818e-05  -2.6851e-06 -0.000764685 
         -50     0.184201  4.14127e-05 -2.98181e-06 -0.000764685 
         -50     0.197599  4.45831e-05 -3.29027e-06 -0.000764685 
         -50     0.211455   4.7659e-05 -3.61091e-06 -0.000764684 
         -50     0.225792  5.06205e-05 -3.94525e-06 -0.000764683 
         -50       0.2406  5.34445e-05  -4.2919e-06 -0.000764681 
         -50     0.255865  5.61125e-05 -4.66001e-06 -0.000764679 
         -50     0.271613  5.86117e-05 -5.05603e-06 -0.000764678 
         -50     0.287818  6.09249e-05 -5.47192e-06 -0.000764675 
         -50     0.304506  6.30474e-05 -5.92067e-06 -0.000764671 
         -50      0.32165  6.49683e-05 -6.40104e-06 -0.000764667 
         -50     0.339278  6.66842e-05 -6.90256e-06 -0.000764661 
         -50     0.357377  6.81884e-05 -7.40597e-06 -0.000764656 
         -50      0.37593  6.94761e-05 -7.88833e-06 -0.000764651 
         -50     0.394968  7.05473e-05   -8.329e-06 -0.000764646 
         -50     0.414461  7.13999e-05 -8.71195e-06 -0.000764643 
         -50      0.43444   7.2037e-05 -9.03333e-06 -0.000764641 
         -50     0.454872  7.24609e-05 -9.30287e-06  -0.00076464 
         -50     0.475791  7.26782e-05 -9.54806e-06  -0.00076464 
         -50     0.497163  7.26959e-05 -9.81118e-06 -0.000764642 
         -50     0.519021  7.25232e-05 -1.01455e-05 -0.000764643 
         -50      0.54135  7.21701e-05 -1.06021e-05 -0.000764644 
         -50     0.564131  7.16474e-05 -1.12093e-05 -0.000764643 
         -50       0.5874  7.09632e-05 -1.19435e-05 -0.000764636 
         -50     0.611121  7.01227e-05 -1.26502e-05 -0.000764624 
         -50      0.63533  6.90658e-05  -1.3017e-05 -0.000764629 
         -50      0.65999  6.78073e-05 -1.34236e-05 -0.000764634 
         -50     0.685139  6.63841e-05 -1.38647e-05 -0.000764639 
         -50     0.710759  6.48328e-05 -1.43339e-05 -0.000764645 
         -50     0.736828  6.31868e-05 -1.48243e-05 -0.000764653 
         -50     0.763387  6.14718e-05 -1.53304e-05 -0.000764662 
         -50     0.790396  5.97142e-05 -1.58449e-05 -0.000764674 
         -50     0.817896   5.7931e-05 -1.63626e-05 -0.000764688 
         -50     0.845843    5.614e-05 -1.68765e-05 -0.000764705 
         -50     0.874283  5.43492e-05  -1.7382e-05 -0.000764725 
         -50      0.90317   5.2568e-05 -1.78733e-05 -0.000764749 
         -50     0.932551   5.0796e-05 -1.83468e-05 -0.000764777 
         -50     0.962401  4.90339e-05 -1.87986e-05 -0.000764809 
         -50     0.992697  4.72791e-05 -1.92257e-05 -0.000764844 
         -50      1.02349  4.55224e-05  -1.9627e-05 -0.000764884 
         -50      1.05472  4.37585e-05 -2.00011e-05 -0.000764928 
         -50      1.08645  4.19753e-05 -2.03489e-05 -0.000764976 
         -50      1.11863  4.01666e-05  -2.0671e-05 -0.000765028 
         -50       1.1513  3.83207e-05   -2.097e-05 -0.000765085 
         -50      1.18444  3.64319e-05 -2.12485e-05 -0.000765145 
         -50      1.21802  3.44972e-05 -2.15095e-05 -0.000765209 
         -50      1.25211  3.25113e-05 -2.17569e-05 -0.000765277 
         -50      1.28663  3.04793e-05 -2.19932e-05  -0.00076535 
         -50      1.32165  2.84032e-05  -2.2221e-05 -0.000765426 
         -50      1.35712   2.6296e-05 -2.24403e-05 -0.000765507 
         -50      1.39308  2.41671e-05 -2.26495e-05 -0.000765594 
         -50      1.42951  2.20339e-05 -2.28424e-05 -0.000765686 
         -50      1.46638  1.99155e-05 -2.30081e-05 -0.000765786 
         -50      1.50375  1.78248e-05 -2.31293e-05 -0.000765893 
         -50      1.54156  1.57304e-05 -2.32164e-05 -0.000766001 
         -50      1.57987  1.36567e-05 -2.32846e-05 -0.000766115 
         -50      1.61863  1.16175e-05 -2.33325e-05 -0.000766233 
         -50      1.65788  9.61721e-06 -2.33598e-05 -0.000766356 
         -50      1.69757  7.66619e-06 -2.33661e-05 -0.000766484 
         -50      1.73776  5.76797e-06 -2.33511e-05 -0.000766616 
         -50      1.77842  3.93031e-06 -2.33148e-05 -0.000766753 
         -50      1.81952  2.16037e-06 -2.32572e-05 -0.000766894 
         -50      1.86113  4.60368e-07 -2.31786e-05 -0.000767039 
         -50      1.90316 -1.16235e-06 -2.30794e-05 -0.000767187 
         -50      1.94571 -2.70644e-06 -2.29599e-05 -0.000767338 
         -50      1.98869 -4.16602e-06 -2.28209e-05 -0.000767492 
         -50      2.03217 -5.54072e-06 -2.26628e-05  -0.00076765 
         -50      2.07612 -6.82719e-06 -2.24866e-05 -0.000767809 
         -50      2.12051 -8.02302e-06 -2.22934e-05 -0.000767971 
         -50       2.1654 -9.12925e-06 -2.20839e-05 -0.000768135 
         -50      2.21073 -1.01439e-05 -2.18594e-05 -0.000768301 
         -50      2.25656 -1.10689e-05 -2.16209e-05 -0.000768468 
         -50      2.30283 -1.19038e-05 -2.13698e-05 -0.000768637 
         -50       2.3496 -1.26514e-05 -2.11069e-05 -0.000768806 
         -50      2.39685 -1.33131e-05 -2.08338e-05 -0.000768977 
         -50      2.44452 -1.38911e-05 -2.05519e-05 -0.000769148 
         -50      2.49271 -1.43893e-05 -2.02621e-05 -0.000769319 
         -50      2.54132 -1.48105e-05 -1.99659e-05 -0.000769491 
         -50      2.59044 -1.51593e-05 -1.96641e-05 -0.000769663 
         -50         2.64 -1.54392e-05 -1.93584e-05 -0.000769834 
         -50      2.69006 -1.56552e-05 -1.90491e-05 -0.000770005 
         -50      2.74056 -1.58118e-05 -1.87379e-05 -0.000770176 
         -50      2.79156 -1.59139e-05  -1.8425e-05 -0.000770346 
         -50      2.84304 -1.59666e-05 -1.81115e-05 -0.000770515 
         -50      2.89494 -1.59747e-05 -1.77983e-05 -0.000770684 
         -50      2.94735 -1.59432e-05 -1.74854e-05 -0.000770851 
         -50       3.0002 -1.58771e-05 -1.71736e-05 -0.000771017 
         -50      3.05355  -1.5781e-05 -1.68628e-05 -0.000771182 
         -50      3.10733 -1.56593e-05 -1.65537e-05 -0.000771346 
         -50      3.16163 -1.55159e-05 -1.62458e-05 -0.000771508 
         -50      3.21639 -1.53548e-05 -1.59394e-05  -0.00077167 
         -50      3.27158 -1.51794e-05 -1.56348e-05 -0.000771829 
         -50      3.32729 -1.49921e-05 -1.53314e-05 -0.000771988 
         -50      3.38342 -1.47956e-05 -1.50297e-05 -0.000772144 
         -50      3.44007 -1.45913e-05 -1.47293e-05   -0.0007723 
         -50      3.49714 -1.43806e-05  -1.4431e-05 -0.000772453 
         -50      3.55472 -1.41639e-05 -1.41349e-05 -0.000772605 
         -50      3.61273 -1.39414e-05 -1.38421e-05 -0.000772756 
         -50      3.67125 -1.37123e-05 -1.35536e-05 -0.000772905 
         -50      3.73025 -1.34757e-05 -1.32715e-05 -0.000773053 
         -50      3.78967 -1.32487e-05 -1.30061e-05 -0.000773198 
         -50      3.84961 -1.30279e-05 -1.27421e-05 -0.000773341 
         -50      3.90996 -1.28066e-05 -1.24761e-05 -0.000773483 
         -50      3.97084 -1.25866e-05 -1.22126e-05 -0.000773623 
         -50      4.03214 -1.23675e-05 -1.19534e-05 -0.000773762 
         -50      4.09395 -1.21492e-05 -1.16983e-05 -0.000773899 
         -50      4.15624 -1.19321e-05 -1.14477e-05 -0.000774034 
         -50      4.21895 -1.17168e-05 -1.12021e-05 -0.000774167 
         -50      4.28217  -1.1503e-05 -1.09612e-05 -0.000774299 
         -50      4.34582 -1.12916e-05 -1.07252e-05 -0.000774429 
         -50      4.40998 -1.10823e-05 -1.04938e-05 -0.000774557 
         -50      4.47457 -1.08758e-05 -1.02672e-05 -0.000774683 
         -50      4.53968  -1.0672e-05  -1.0045e-05 -0.000774807 
         -50      4.60525 -1.04711e-05   -9.827e-06  -0.00077493 
         -50      4.67125 -1.02733e-05  -9.6134e-06 -0.000775051 
         -50      4.73777 -1.00784e-05 -9.40369e-06  -0.00077517 
         -50       4.8047 -9.88672e-06  -9.1981e-06 -0.000775287 
         -50      4.87216 -9.69778e-06 -8.99624e-06 -0.000775402 
         -50      4.94003 -9.51178e-06  -8.7984e-06 -0.000775516 
         -50      5.00843 -9.32822e-06 -8.60427e-06 -0.000775627 
         -50      5.07724  -9.1472e-06  -8.4142e-06 -0.000775737 
         -50      5.14658 -8.96818e-06  -8.2279e-06 -0.000775845 
         -50      5.21639 -8.79107e-06 -8.04558e-06 -0.000775951 
         -50      5.28661 -8.61578e-06 -7.86736e-06 -0.000776055 
         -50      5.35736 -8.44186e-06 -7.69286e-06 -0.000776158 
         -50      5.42852 -8.26949e-06 -7.52216e-06 -0.000776259 
         -50      5.50021 -8.09844e-06 -7.35456e-06 -0.000776358 
         -50      5.57231 -7.92918e-06 -7.18969e-06 -0.000776455 
         -50      5.64493 -7.76185e-06 -7.02629e-06 -0.000776551 
         -50      5.71803  -7.6044e-06  -6.8704e-06 -0.000776643 
         -50      5.79154 -7.44842e-06 -6.71834e-06 -0.000776734 
         -50      5.86558 -7.29329e-06 -6.56888e-06 -0.000776824 
         -50      5.94003 -7.13924e-06 -6.42178e-06 -0.000776912 
         -50      6.01501 -6.98628e-06 -6.27676e-06 -0.000776998 
         -50       6.0904 -6.83508e-06 -6.13434e-06 -0.000777083 
         -50      6.16632 -6.68588e-06 -5.99478e-06 -0.000777167 
         -50      6.24271 -6.53933e-06 -5.85878e-06 -0.000777249 
         -50       6.3195 -6.39597e-06 -5.72693e-06 -0.000777329 
         -50      6.39683  -6.2559e-06 -5.59927e-06 -0.000777407 
         -50      6.47457 -6.11954e-06 -5.47574e-06 -0.000777484 
         -50      6.55284 -5.98672e-06 -5.35521e-06 -0.000777558 
         -50      6.63152 -5.85754e-06 -5.23593e-06  -0.00077763 
         -50      6.71073 -5.73162e-06 -5.11454e-06   -0.0007777 
         -50      6.79034 -5.60285e-06 -4.99962e-06  -0.00077777 
         -50      6.87049 -5.47315e-06 -4.88956e-06 -0.000777839 
         -50      6.95111 -5.34553e-06 -4.78072e-06 -0.000777906 
         -50      7.03214 -5.22046e-06 -4.67362e-06  -0.00077797 
         -50       7.1137 -5.09796e-06 -4.56838e-06 -0.000778032 
         -50      7.19566 -4.97835e-06 -4.46535e-06 -0.000778093 
         -50      7.27816 -4.86144e-06 -4.36447e-06 -0.000778152 
         -50      7.36106 -4.74732e-06 -4.26593e-06  -0.00077821 
         -50      7.44451 -4.63568e-06 -4.16958e-06 -0.000778266 
         -50      7.52842 -4.52642e-06  -4.0755e-06 -0.000778321 
         -50      7.61273 -4.41945e-06 -3.98381e-06 -0.000778374 
         -50      7.69758 -4.31446e-06 -3.89449e-06 -0.000778426 
         -50      7.78283 -4.21159e-06 -3.80793e-06 -0.000778477 
         -50      7.86862 -4.11076e-06 -3.72443e-06 -0.000778526 
         -50      7.95481 -4.01246e-06 -3.64477e-06 -0.000778573 
         -50      8.04155 -3.91713e-06 -3.56978e-06 -0.000778618 
         -50      8.12868 -3.82009e-06 -3.49099e-06 -0.000778663 
         -50      8.21635 -3.72299e-06 -3.41208e-06 -0.000778706 
         -50      8.30449 -3.62767e-06 -3.33532e-06 -0.000778748 
         -50      8.39303 -3.53461e-06  -3.2607e-06 -0.000778788 
         -50      8.48211 -3.44389e-06 -3.18812e-06 -0.000778827 
         -50      8.57159 -3.35578e-06 -3.11771e-06 -0.000778864 
         -50      8.66161  -3.2701e-06 -3.04938e-06   -0.0007789 
         -50      8.75203 -3.18683e-06  -2.9832e-06 -0.000778934 
         -50      8.84299 -3.10559e-06 -2.91895e-06 -0.000778968 
         -50      8.93443 -3.02612e-06 -2.85643e-06 -0.000778999 
         -50      9.02626 -2.94816e-06 -2.79526e-06  -0.00077903 
         -50      9.11863 -2.87133e-06 -2.73471e-06 -0.000779059 
         -50      9.21139 -2.79563e-06 -2.67396e-06 -0.000779086 
         -50      9.30471  -2.7211e-06 -2.61173e-06 -0.000779112 
         -50      9.39841 -2.65111e-06 -2.55489e-06 -0.000779138 
         -50      9.49267 -2.58385e-06  -2.5032e-06 -0.000779162 
         -50      9.58739 -2.51655e-06 -2.45008e-06 -0.000779185 
         -50      9.68251 -2.44973e-06 -2.39663e-06 -0.000779206 
         -50      9.77817 -2.38367e-06 -2.34353e-06 -0.000779226 
         -50      9.87422 -2.31877e-06 -2.29142e-06 -0.000779244 
         -50      9.97083 -2.25513e-06 -2.24058e-06 -0.000779262 
         -50      10.0678 -2.19301e-06 -2.19129e-06 -0.000779278 
         -50      10.1654 -2.13238e-06 -2.14352e-06 -0.000779293 
         -50      10.2633  -2.0734e-06 -2.09732e-06 -0.000779306 
         -50      10.3618 -2.01596e-06  -2.0525e-06 -0.000779319 
         -50      10.4607 -1.96007e-06 -2.00894e-06 -0.000779331 
         -50      10.5601 -1.90572e-06 -1.96651e-06 -0.000779341 
         -50        10.66 -1.85275e-06 -1.92496e-06  -0.00077935 
         -50      10.7603 -1.80116e-06 -1.88422e-06 -0.000779359 
         -50      10.8611 -1.75078e-06 -1.84409e-06 -0.000779366 
         -50      10.9623 -1.70162e-06 -1.80458e-06 -0.000779373 
         -50      11.0641 -1.65354e-06 -1.76561e-06 -0.000779378 
         -50      11.1663 -1.60651e-06 -1.72726e-06 -0.000779383 
         -50       11.269 -1.56056e-06 -1.68967e-06 -0.000779386 
         -50      11.3721 -1.51559e-06 -1.65292e-06 -0.000779388 
         -50      11.4757 -1.47171e-06 -1.61726e-06  -0.00077939 
         -50      11.5798 -1.42889e-06 -1.58283e-06  -0.00077939 
         -50      11.6844 -1.38726e-06 -1.54985e-06  -0.00077939 
         -50      11.7894 -1.34687e-06  -1.5184e-06 -0.000779388 
         -50       11.895 -1.30785e-06 -1.48853e-06 -0.000779385 
         -50      12.0009 -1.27037e-06 -1.46012e-06 -0.000779382 
         -50      12.1073  -1.2345e-06 -1.43278e-06 -0.000779377 
         -50      12.2142 -1.20044e-06 -1.40589e-06 -0.000779371 
         -50      12.3216 -1.16826e-06 -1.37837e-06 -0.000779364 
         -50      12.4294 -1.13809e-06 -1.34875e-06 -0.000779356 
         -50      12.5378 -1.10994e-06 -1.31485e-06 -0.000779347 
         -50      12.6465 -1.07739e-06 -1.28152e-06 -0.000779337 
         -50      12.7558  -1.0312e-06 -1.26168e-06 -0.000779328 
         -50      12.8656 -1.01173e-06 -1.23333e-06 -0.000779315 
         -50      12.9757 -9.88086e-07 -1.20905e-06 -0.000779301 
         -50      13.0864 -9.54279e-07 -1.18872e-06 -0.000779289 
         -50      13.1975 -9.22282e-07 -1.16716e-06 -0.000779276 
         -50      13.3092 -8.91907e-07  -1.1447e-06 -0.000779262 
         -50      13.4212 -8.63082e-07 -1.12172e-06 -0.000779248 
         -50      13.5338 -8.35656e-07 -1.09844e-06 -0.000779232 
         -50      13.6468 -8.09557e-07 -1.07513e-06 -0.000779215 
         -50      13.7603 -7.84716e-07   -1.052e-06 -0.000779198 
         -50      13.8743 -7.61006e-07 -1.02917e-06 -0.000779179 
         -50      13.9886 -7.38382e-07  -1.0068e-06  -0.00077916 
         -50      14.1036 -7.16722e-07 -9.84947e-07  -0.00077914 
         -50      14.2189 -6.95972e-07 -9.63703e-07 -0.000779119 
         -50      14.3348 -6.76007e-07 -9.43077e-07 -0.000779097 
         -50       14.451 -6.56765e-07 -9.23118e-07 -0.000779075 
         -50      14.5678 -6.38117e-07 -9.03794e-07 -0.000779051 
         -50      14.6851 -6.19975e-07 -8.85105e-07 -0.000779027 
         -50      14.8028 -6.02253e-07 -8.67036e-07 -0.000779002 
         -50       14.921 -5.84823e-07 -8.49521e-07 -0.000778976 
         -50      15.0396 -5.67621e-07 -8.32544e-07  -0.00077895 
         -50      15.1588 -5.50537e-07 -8.16028e-07 -0.000778923 
         -50      15.2783 -5.33533e-07  -7.9995e-07 -0.000778895 
         -50      15.3984 -5.16541e-07 -7.84235e-07 -0.000778867 
         -50       15.519 -4.99566e-07 -7.68849e-07 -0.000778838 
         -50        15.64 -4.82653e-07 -7.53763e-07 -0.000778808 
         -50      15.7615 -4.65862e-07 -7.38917e-07 -0.000778778 
         -50      15.8834 -4.49369e-07 -7.24305e-07 -0.000778747 
         -50      16.0058  -4.3338e-07 -7.09883e-07 -0.000778716 
         -50      16.1286 -4.18244e-07 -6.95665e-07 -0.000778683 
         -50       16.252 -4.04376e-07 -6.81623e-07  -0.00077865 
         -50      16.3759  -3.9236e-07 -6.67775e-07 -0.000778617 
         -50      16.5002 -3.82926e-07 -6.54147e-07 -0.000778582 
         -50       16.625 -3.76962e-07 -6.40737e-07 -0.000778547 
         -50      16.7501 -3.66953e-07 -6.29218e-07 -0.000778511 
         -50      16.8759 -3.51214e-07 -6.19081e-07 -0.000778474 
         -50       17.002 -3.38782e-07 -6.08337e-07 -0.000778436 
         -50      17.1287 -3.28583e-07 -5.97227e-07 -0.000778398 
         -50      17.2557 -3.19799e-07 -5.85983e-07  -0.00077836 
         -50      17.3834  -3.1178e-07 -5.74761e-07 -0.000778321 
         -50      17.5115  -3.0407e-07 -5.63708e-07 -0.000778281 
         -50      17.6399 -2.96365e-07 -5.52934e-07 -0.000778241 
         -50       17.769  -2.8847e-07 -5.42491e-07   -0.0007782 
         -50      17.8984 -2.80324e-07 -5.32437e-07 -0.000778158 
         -50      18.0284 -2.71923e-07 -5.22769e-07 -0.000778116 
         -50      18.1587 -2.63355e-07  -5.1349e-07 -0.000778073 
         -50      18.2896 -2.54729e-07 -5.04554e-07 -0.000778029 
         -50       18.421 -2.46197e-07 -4.95917e-07 -0.000777984 
         -50      18.5528 -2.37924e-07  -4.8752e-07 -0.000777939 
         -50      18.6851 -2.30045e-07 -4.79273e-07 -0.000777893 
         -50      18.8178   -2.227e-07   -4.711e-07 -0.000777847 
         -50      18.9511 -2.15973e-07 -4.62897e-07   -0.0007778 
         -50      19.0847  -2.0992e-07 -4.54581e-07 -0.000777752 
         -50      19.2189 -2.04526e-07 -4.46044e-07 -0.000777705 
         -50      19.3535 -1.99727e-07 -4.37211e-07 -0.000777657 
         -50      19.4886  -1.9538e-07 -4.27983e-07 -0.000777608 
         -50      19.6242 -1.91281e-07 -4.18295e-07 -0.000777559 
         -50      19.7602 -1.87156e-07 -4.08099e-07 -0.000777511 
         -50      19.8968 -1.82656e-07 -3.97337e-07 -0.000777462 
         -50      20.0337 -1.77385e-07 -3.86007e-07 -0.000777413 
         -50      20.1712  -1.7088e-07 -3.74096e-07 -0.000777364 
         -50      20.3091  -1.6277e-07 -3.63094e-07 -0.000777314 
         -50      20.4475 -1.54407e-07 -3.56716e-07 -0.000777259 
         -50      20.5864  -1.4675e-07 -3.50111e-07 -0.000777204 
         -50      20.7257 -1.40678e-07 -3.43089e-07 -0.000777147 
         -50      20.8655  -1.3746e-07 -3.35527e-07 -0.000777091 
         -50      21.0058 -1.38875e-07 -3.27421e-07 -0.000777033 
         -50      21.1465 -1.47299e-07 -3.18847e-07 -0.000776975 
         -50      21.2877 -1.47167e-07 -3.14324e-07 -0.000776919 
         -50      21.4294 -1.33984e-07 -3.09104e-07 -0.000776864 
         -50      21.5716 -1.29332e-07 -2.99271e-07 -0.000776808 
         -50      21.7142  -1.3028e-07 -2.88463e-07 -0.000776751 
         -50      21.8573 -1.33804e-07 -2.78905e-07 -0.000776693 
         -50      22.0008 -1.32022e-07 -2.74136e-07 -0.000776635 
         -50      22.1449 -1.20554e-07 -2.74373e-07 -0.000776575 
         -50      22.2893 -1.11695e-07 -2.72993e-07 -0.000776515 
         -50      22.4344 -1.05499e-07 -2.70117e-07 -0.000776454 
         -50      22.5797 -1.01861e-07 -2.65935e-07 -0.000776393 
         -50      22.7257 -1.00507e-07 -2.60669e-07 -0.000776332 
         -50      22.8721 -1.01049e-07 -2.54575e-07  -0.00077627 
         -50      23.0189 -1.03001e-07 -2.47929e-07 -0.000776207 
         -50      23.1663 -1.05822e-07 -2.40986e-07 -0.000776144 
         -50       23.314 -1.08934e-07 -2.34012e-07  -0.00077608 
         -50      23.4623 -1.11772e-07 -2.27224e-07 -0.000776016 
         -50       23.611 -1.13799e-07 -2.20826e-07 -0.000775951 
         -50      23.7602 -1.14557e-07 -2.14959e-07 -0.000775886 
         -50        23.91 -1.13687e-07 -2.09726e-07  -0.00077582 
         -50        24.06 -1.10976e-07 -2.05174e-07 -0.000775754 
         -50      24.2107 -1.06381e-07 -2.01279e-07 -0.000775688 
         -50      24.3617 -1.00082e-07  -1.9797e-07 -0.000775621 
         -50      24.5133 -9.24909e-08 -1.95102e-07 -0.000775554 
         -50      24.6653 -8.43262e-08 -1.92485e-07 -0.000775486 
         -50      24.8178 -7.66054e-08 -1.89864e-07 -0.000775417 
         -50      24.9708 -7.07268e-08 -1.86947e-07 -0.000775349 
         -50      25.1242 -6.84809e-08 -1.83408e-07 -0.000775279 
         -50      25.2781   -7.209e-08  -1.7889e-07 -0.000775209 
         -50      25.4324 -8.42457e-08 -1.73042e-07 -0.000775139 
         -50      25.5873 -9.02653e-08 -1.68636e-07 -0.000775068 
         -50      25.7426 -9.01909e-08 -1.63954e-07 -0.000774997 
         -50      25.8984 -8.73456e-08 -1.59266e-07 -0.000774924 
         -50      26.0546 -8.35455e-08 -1.54919e-07 -0.000774851 
         -50      26.2114 -7.98517e-08 -1.51071e-07 -0.000774777 
         -50      26.3686 -7.66458e-08  -1.4774e-07 -0.000774703 
         -50      26.5262 -7.37527e-08 -1.44816e-07 -0.000774628 
         -50      26.6844 -7.06465e-08  -1.4209e-07 -0.000774553 
         -50      26.8429 -6.67646e-08 -1.39308e-07 -0.000774478 
         -50       27.002 -6.18707e-08 -1.36202e-07 -0.000774402 
         -50      27.1615 -5.65593e-08 -1.32566e-07 -0.000774327 
         -50      27.3216 -5.28053e-08 -1.28293e-07  -0.00077425 
         -50      27.4821  -5.4678e-08 -1.23472e-07 -0.000774172 
         -50       27.643 -5.54035e-08 -1.19286e-07 -0.000774095 
         -50      27.8044 -5.21894e-08 -1.15726e-07 -0.000774018 
         -50      27.9663 -4.99096e-08 -1.12323e-07  -0.00077394 
         -50      28.1287  -4.8436e-08 -1.09046e-07 -0.000773862 
         -50      28.2914 -4.76415e-08 -1.05882e-07 -0.000773782 
         -50      28.4548 -4.73933e-08 -1.02814e-07 -0.000773703 
         -50      28.6185 -4.75616e-08 -9.98386e-08 -0.000773622 
         -50      28.7828 -4.80199e-08 -9.69485e-08 -0.000773541 
         -50      28.9475 -4.86477e-08 -9.41453e-08  -0.00077346 
         -50      29.1126 -4.93327e-08 -9.14323e-08 -0.000773378 
         -50      29.2784  -4.9975e-08 -8.88075e-08 -0.000773296 
         -50      29.4444 -5.04852e-08 -8.62777e-08 -0.000773213 
         -50       29.611   -5.079e-08  -8.3841e-08  -0.00077313 
         -50       29.778 -5.08303e-08 -8.15022e-08 -0.000773046 
         -50      29.9456 -5.05641e-08 -7.92571e-08 -0.000772962 
         -50      30.1137 -4.99663e-08 -7.71047e-08 -0.000772878 
         -50      30.2821 -4.90305e-08 -7.50414e-08 -0.000772793 
         -50      30.4511 -4.77654e-08 -7.30558e-08 -0.000772708 
         -50      30.6204 -4.62006e-08 -7.11403e-08 -0.000772622 
         -50      30.7903 -4.43773e-08 -6.92778e-08 -0.000772536 
         -50      30.9606 -4.23572e-08 -6.74548e-08  -0.00077245 
         -50      31.1315 -4.02096e-08 -6.56491e-08 -0.000772363 
         -50      31.3028 -3.80197e-08 -6.38406e-08 -0.000772275 
         -50      31.4745 -3.58815e-08 -6.20076e-08 -0.000772188 
         -50      31.6468 -3.38892e-08 -6.01231e-08   -0.0007721 
         -50      31.8194 -3.21455e-08 -5.81658e-08 -0.000772011 
         -50      31.9926 -3.07441e-08  -5.6109e-08 -0.000771922 
         -50      32.1662 -2.97765e-08 -5.39346e-08 -0.000771833 
         -50      32.3404 -2.93174e-08 -5.16213e-08 -0.000771743 
         -50      32.5149  -2.9424e-08 -4.91598e-08 -0.000771653 
         -50        32.69 -3.01272e-08 -4.65401e-08 -0.000771562 
         -50      32.8655 -3.14237e-08  -4.3767e-08 -0.000771471 
         -50      33.0414 -3.32663e-08 -4.08569e-08  -0.00077138 
         -50       33.218 -3.55609e-08 -3.78327e-08 -0.000771288 
         -50      33.3948 -3.81456e-08  -3.4743e-08 -0.000771196 
         -50      33.5723 -4.07939e-08 -3.16463e-08 -0.000771103 
         -50        33.75 -4.31872e-08 -2.86335e-08  -0.00077101 
         -50      33.9284 -4.49184e-08 -2.58117e-08 -0.000770917 
         -50      34.1073 -4.54636e-08 -2.33257e-08 -0.000770823 
         -50      34.2865 -4.41783e-08 -2.13534e-08 -0.000770729 
         -50      34.4663 -4.02739e-08 -2.01065e-08 -0.000770635 
         -50      34.6465 -3.28144e-08 -1.98452e-08 -0.000770541 
         -50      34.8272 -2.06695e-08 -2.08762e-08 -0.000770446 
         -50      35.0083 -1.25141e-08 -2.18662e-08 -0.000770351 
         -50        35.19 -1.07927e-08 -2.16038e-08 -0.000770254 
         -50      35.3721 -1.06288e-08 -2.04674e-08 -0.000770157 
         -50      35.5546 -1.51286e-08 -1.83465e-08  -0.00077006 
         -50      35.7377 -2.66196e-08 -1.72047e-08 -0.000769963 
         -50      35.9211 -3.29354e-08 -1.57847e-08 -0.000769865 
         -50      36.1052 -3.54202e-08 -1.42969e-08 -0.000769767 
         -50      36.2895 -3.52454e-08 -1.29142e-08 -0.000769669 
         -50      36.4745 -3.34388e-08 -1.17662e-08 -0.000769569 
         -50      36.6598 -3.08904e-08 -1.09505e-08  -0.00076947 
         -50      36.8457 -2.83633e-08 -1.03768e-08  -0.00076937 
         -50      37.0321 -2.62786e-08 -7.57513e-09  -0.00076927 
         -50      37.2188 -2.44895e-08 -5.12835e-09  -0.00076917 
         -50      37.4062 -2.32018e-08 -3.03823e-09  -0.00076907 
         -50      37.5938 -2.25361e-08 -1.29567e-09 -0.000768969 
         -50      37.7821 -2.25336e-08  1.29189e-10 -0.000768868 
         -50      37.9707 -2.31747e-08  1.27249e-09 -0.000768767 
         -50      38.1599 -2.43917e-08  2.18277e-09 -0.000768666 
         -50      38.3496  -2.6079e-08   2.9111e-09 -0.000768564 
         -50      38.5396 -2.81046e-08   3.5117e-09 -0.000768462 
         -50      38.7302 -3.03272e-08  4.04025e-09 -0.000768359 
         -50      38.9211 -3.25945e-08  4.54832e-09 -0.000768256 
         -50      39.1127 -3.47657e-08  5.08493e-09 -0.000768153 
         -50      39.3046 -3.67053e-08  5.69127e-09  -0.00076805 
         -50      39.4971 -3.83032e-08  6.40283e-09 -0.000767946 
         -50      39.6899  -3.9468e-08  7.24407e-09 -0.000767842 
         -50      39.8833 -4.01416e-08  8.23217e-09 -0.000767737 
         -50      40.0772 -4.02944e-08  9.37194e-09 -0.000767633 
         -50      40.2714 -3.99316e-08   1.0657e-08 -0.000767528 
         -50      40.4663 -3.90908e-08  1.20736e-08 -0.000767422 
         -50      40.6615 -3.78432e-08  1.35934e-08 -0.000767317 
         -50      40.8573 -3.62855e-08  1.51835e-08 -0.000767211 
         -50      41.0534 -3.45429e-08  1.67979e-08 -0.000767104 
         -50      41.2501 -3.27527e-08  1.83896e-08 -0.000766998 
         -50      41.4473 -3.10658e-08  1.99031e-08 -0.000766891 
         -50      41.6448 -2.96313e-08  2.12819e-08 -0.000766784 
         -50      41.8429 -2.85812e-08  2.24742e-08 -0.000766677 
         -50      42.0414 -2.80234e-08  2.34292e-08  -0.00076657 
         -50      42.2405  -2.8018e-08  2.41089e-08 -0.000766462 
         -50      42.4399 -2.85626e-08  2.44867e-08 -0.000766354 
         -50      42.6399 -2.95698e-08  2.45571e-08 -0.000766245 
         -50      42.8404 -3.08417e-08  2.43389e-08 -0.000766137 
         -50      43.0412 -3.20439e-08  2.38835e-08 -0.000766028 
         -50      43.2426 -3.26795e-08  2.32804e-08 -0.000765919 
         -50      43.4444 -3.20525e-08  2.26674e-08 -0.000765809 
         -50      43.6467 -2.92336e-08  2.22361e-08 -0.000765699 
         -50      43.8494   -2.303e-08  2.22445e-08 -0.000765589 
         -50      44.0527 -1.19221e-08  2.30248e-08 -0.000765478 
         -50      44.2563  5.45583e-09  2.49137e-08 -0.000765366 
         -50      44.4606   4.6785e-09   2.4117e-08 -0.000765256 
         -50      44.6653   2.0956e-09  2.34981e-08 -0.000765145 
         -50      44.8704 -1.71578e-09   2.3063e-08 -0.000765034 
         -50       45.076 -6.21139e-09  2.28217e-08 -0.000764923 
         -50       45.282 -1.08771e-08  2.27902e-08 -0.000764811 
         -50      45.4886 -1.52757e-08  2.29904e-08   -0.0007647 
         -50      45.6955 -1.90386e-08  2.34503e-08 -0.000764588 
         -50       45.903 -2.19118e-08  2.42053e-08 -0.000764476 
         -50      46.1111 -2.37532e-08  2.52968e-08 -0.000764363 
         -50      46.3194 -2.45643e-08  2.67719e-08 -0.000764251 
         -50      46.5283 -2.45071e-08  2.86875e-08 -0.000764138 
         -50      46.7376 -2.39197e-08  3.11014e-08 -0.000764025 
         -50      46.9475 -2.33348e-08  3.40836e-08 -0.000763911 
         -50      47.1577  -2.3499e-08  3.76999e-08 -0.000763797 
         -50      47.3685 -2.50897e-08  3.94892e-08 -0.000763683 
         -50      47.5798 -2.53099e-08  3.79345e-08  -0.00076357 
         -50      47.7914 -2.38045e-08  3.72236e-08 -0.000763456 
         -50      48.0037 -2.12201e-08  3.71536e-08 -0.000763342 