Variables = x, y, u, v, p

Zone, I=20800, F=POINT
         -50            0            0            0   0.00020598 
         -50     0.000234 -4.45747e-08   3.8767e-11   0.00020598 
         -50     0.000939 -1.77934e-07  1.26774e-10   0.00020598 
         -50     0.002113 -3.96916e-07  1.80075e-10   0.00020598 
         -50     0.003759 -6.97519e-07  6.70833e-11  0.000205979 
         -50     0.005872 -1.07263e-06 -3.81896e-10  0.000205979 
         -50     0.008457 -1.51547e-06 -1.36902e-09  0.000205979 
         -50      0.01151 -2.01638e-06 -3.12211e-09  0.000205979 
         -50     0.015036 -2.56617e-06 -5.90533e-09  0.000205979 
         -50     0.019031 -3.15341e-06 -1.00179e-08  0.000205978 
         -50     0.023493 -3.76653e-06 -1.58097e-08  0.000205978 
         -50     0.028429 -4.39495e-06 -2.37005e-08  0.000205978 
         -50     0.033831 -5.02613e-06  -3.4136e-08  0.000205977 
         -50     0.039706 -5.64971e-06 -4.76054e-08  0.000205977 
         -50     0.046047 -6.25437e-06 -6.45346e-08  0.000205977 
         -50     0.052863 -6.83118e-06 -8.52999e-08  0.000205976 
         -50      0.06015 -7.37102e-06 -1.10139e-07  0.000205976 
         -50       0.0679 -7.86601e-06 -1.39283e-07  0.000205975 
         -50     0.076126 -8.31108e-06 -1.73475e-07  0.000205975 
         -50     0.084816 -8.70126e-06 -2.14639e-07  0.000205974 
         -50     0.093982 -9.03416e-06 -2.59325e-07  0.000205974 
         -50     0.103611 -9.30784e-06 -3.07725e-07  0.000205973 
         -50     0.113718 -9.52312e-06 -3.63147e-07  0.000205973 
         -50     0.124286 -9.68135e-06 -4.26745e-07  0.000205972 
         -50     0.135333 -9.78574e-06 -4.98155e-07  0.000205971 
         -50      0.14685  -9.8401e-06 -5.75774e-07  0.000205971 
         -50     0.158827 -9.84939e-06 -6.57875e-07  0.000205971 
         -50     0.171284 -9.81931e-06 -7.43915e-07   0.00020597 
         -50     0.184201  -9.7562e-06 -8.34956e-07   0.00020597 
         -50     0.197599 -9.66669e-06 -9.34406e-07  0.000205969 
         -50     0.211455 -9.55781e-06 -1.04609e-06  0.000205968 
         -50     0.225792 -9.43606e-06 -1.17108e-06  0.000205968 
         -50       0.2406 -9.30746e-06 -1.29916e-06  0.000205969 
         -50     0.255865 -9.17816e-06 -1.42494e-06  0.000205969 
         -50     0.271613 -9.04357e-06 -1.62044e-06  0.000205967 
         -50     0.287818 -8.91043e-06 -1.85634e-06  0.000205967 
         -50     0.304506 -8.79239e-06 -2.11057e-06   0.00020597 
         -50      0.32165 -8.70132e-06 -2.36257e-06  0.000205973 
         -50     0.339278 -8.64622e-06 -2.59502e-06  0.000205976 
         -50     0.357377 -8.63361e-06  -2.7926e-06  0.000205978 
         -50      0.37593 -8.66702e-06 -2.94279e-06  0.000205978 
         -50     0.394968 -8.74723e-06 -3.03659e-06  0.000205976 
         -50     0.414461 -8.87223e-06 -3.06846e-06  0.000205972 
         -50      0.43444 -9.03792e-06 -3.03824e-06  0.000205965 
         -50     0.454872 -9.23778e-06 -2.95326e-06  0.000205957 
         -50     0.475791 -9.46437e-06 -2.83166e-06  0.000205949 
         -50     0.497163  -9.7086e-06 -2.70826e-06  0.000205942 
         -50     0.519021 -9.96168e-06 -2.64153e-06  0.000205937 
         -50      0.54135 -1.02143e-05 -2.72505e-06  0.000205935 
         -50     0.564131 -1.04572e-05 -3.10117e-06  0.000205939 
         -50       0.5874 -1.06821e-05 -3.98186e-06  0.000205949 
         -50     0.611121 -1.08808e-05 -5.52336e-06  0.000205971 
         -50      0.63533  -1.1162e-05 -5.93571e-06  0.000206022 
         -50      0.65999 -1.15759e-05 -6.17654e-06  0.000206047 
         -50     0.685139   -1.209e-05 -6.29696e-06  0.000206051 
         -50     0.710759 -1.26722e-05 -6.34124e-06   0.00020604 
         -50     0.736828 -1.32922e-05 -6.34722e-06  0.000206019 
         -50     0.763387 -1.39233e-05 -6.34581e-06  0.000205992 
         -50     0.790396 -1.45397e-05 -6.36087e-06  0.000205962 
         -50     0.817896 -1.51204e-05  -6.4094e-06  0.000205933 
         -50     0.845843 -1.56454e-05  -6.5017e-06  0.000205909 
         -50     0.874283    -1.61e-05 -6.64218e-06  0.000205891 
         -50      0.90317 -1.64713e-05 -6.82948e-06   0.00020588 
         -50     0.932551 -1.67512e-05 -7.05813e-06  0.000205877 
         -50     0.962401  -1.6934e-05 -7.31865e-06  0.000205882 
         -50     0.992697 -1.70176e-05 -7.59899e-06  0.000205895 
         -50      1.02349 -1.70034e-05 -7.88654e-06  0.000205914 
         -50      1.05472 -1.68955e-05 -8.16775e-06  0.000205938 
         -50      1.08645    -1.67e-05 -8.43122e-06  0.000205963 
         -50      1.11863 -1.64261e-05 -8.66704e-06  0.000205987 
         -50       1.1513 -1.60834e-05 -8.86942e-06  0.000206008 
         -50      1.18444 -1.56835e-05 -9.03604e-06  0.000206023 
         -50      1.21802 -1.52385e-05 -9.16902e-06  0.000206029 
         -50      1.25211 -1.47592e-05 -9.27492e-06  0.000206025 
         -50      1.28663 -1.42569e-05 -9.36316e-06   0.00020601 
         -50      1.32165 -1.37396e-05 -9.44497e-06  0.000205986 
         -50      1.35712 -1.32148e-05    -9.53e-06  0.000205956 
         -50      1.39308  -1.2685e-05  -9.6228e-06  0.000205925 
         -50      1.42951 -1.21504e-05 -9.71677e-06  0.000205904 
         -50      1.46638  -1.1607e-05 -9.78696e-06  0.000205905 
         -50      1.50375 -1.10447e-05 -9.78066e-06  0.000205947 
         -50      1.54156  -1.0458e-05 -9.86579e-06  0.000205943 
         -50      1.57987 -9.86638e-06  -9.9466e-06  0.000205934 
         -50      1.61863 -9.27526e-06  -1.0011e-05  0.000205925 
         -50      1.65788 -8.68726e-06 -1.00601e-05  0.000205918 
         -50      1.69757 -8.10669e-06 -1.00947e-05  0.000205911 
         -50      1.73776 -7.53562e-06 -1.01158e-05  0.000205905 
         -50      1.77842 -6.97723e-06 -1.01242e-05    0.0002059 
         -50      1.81952 -6.43437e-06 -1.01207e-05  0.000205896 
         -50      1.86113 -5.90823e-06 -1.01061e-05  0.000205892 
         -50      1.90316 -5.40144e-06 -1.00809e-05  0.000205888 
         -50      1.94571 -4.91461e-06 -1.00459e-05  0.000205885 
         -50      1.98869 -4.44966e-06 -1.00017e-05  0.000205882 
         -50      2.03217 -4.00668e-06 -9.94861e-06   0.00020588 
         -50      2.07612 -3.58657e-06 -9.88727e-06  0.000205877 
         -50      2.12051 -3.18991e-06 -9.81816e-06  0.000205875 
         -50       2.1654 -2.81607e-06 -9.74156e-06  0.000205874 
         -50      2.21073 -2.46541e-06 -9.65797e-06  0.000205872 
         -50      2.25656 -2.13693e-06 -9.56761e-06   0.00020587 
         -50      2.30283 -1.83051e-06 -9.47096e-06  0.000205869 
         -50       2.3496 -1.54489e-06 -9.36817e-06  0.000205867 
         -50      2.39685  -1.2794e-06 -9.25965e-06  0.000205866 
         -50      2.44452 -1.03321e-06  -9.1458e-06  0.000205865 
         -50      2.49271  -8.0488e-07 -9.02677e-06  0.000205864 
         -50      2.54132 -5.93658e-07  -8.9031e-06  0.000205863 
         -50      2.59044 -3.98117e-07 -8.77497e-06  0.000205862 
         -50         2.64 -2.17507e-07 -8.64298e-06  0.000205862 
         -50      2.69006 -5.05504e-08 -8.50735e-06  0.000205862 
         -50      2.74056  1.03396e-07 -8.36879e-06  0.000205862 
         -50      2.79156  2.45369e-07 -8.22758e-06  0.000205862 
         -50      2.84304  3.75906e-07 -8.08439e-06  0.000205862 
         -50      2.89494  4.95443e-07 -7.93993e-06  0.000205863 
         -50      2.94735  6.04555e-07 -7.79461e-06  0.000205865 
         -50       3.0002  7.03318e-07 -7.64929e-06  0.000205867 
         -50      3.05355  7.92021e-07 -7.50443e-06  0.000205869 
         -50      3.10733  8.70581e-07  -7.3609e-06  0.000205872 
         -50      3.16163  9.39138e-07  -7.2191e-06  0.000205875 
         -50      3.21639   9.9767e-07 -7.07974e-06  0.000205878 
         -50      3.27158   1.0463e-06  -6.9434e-06  0.000205882 
         -50      3.32729  1.08549e-06 -6.81022e-06  0.000205887 
         -50      3.38342  1.11589e-06  -6.6806e-06  0.000205891 
         -50      3.44007   1.1388e-06 -6.55427e-06  0.000205896 
         -50      3.49714  1.15611e-06 -6.43107e-06  0.000205901 
         -50      3.55472   1.1707e-06 -6.31004e-06  0.000205906 
         -50      3.61273   1.1866e-06 -6.19016e-06  0.000205911 
         -50      3.67125  1.20936e-06 -6.06943e-06  0.000205915 
         -50      3.73025  1.24636e-06 -5.94544e-06  0.000205918 
         -50      3.78967  1.27499e-06 -5.81164e-06  0.000205923 
         -50      3.84961  1.29069e-06 -5.68787e-06   0.00020593 
         -50      3.90996  1.30578e-06 -5.57715e-06  0.000205936 
         -50      3.97084  1.31849e-06 -5.46531e-06  0.000205942 
         -50      4.03214  1.33092e-06 -5.35411e-06  0.000205947 
         -50      4.09395  1.34328e-06 -5.24444e-06  0.000205953 
         -50      4.15624  1.35539e-06 -5.13632e-06  0.000205959 
         -50      4.21895  1.36711e-06 -5.02982e-06  0.000205966 
         -50      4.28217  1.37836e-06  -4.9248e-06  0.000205973 
         -50      4.34582  1.38904e-06 -4.82149e-06   0.00020598 
         -50      4.40998  1.39915e-06 -4.71977e-06  0.000205988 
         -50      4.47457  1.40863e-06 -4.61988e-06  0.000205995 
         -50      4.53968  1.41751e-06 -4.52168e-06  0.000206003 
         -50      4.60525  1.42581e-06 -4.42527e-06  0.000206011 
         -50      4.67125  1.43354e-06  -4.3307e-06  0.000206018 
         -50      4.73777  1.44076e-06 -4.23774e-06  0.000206026 
         -50       4.8047  1.44749e-06 -4.14646e-06  0.000206033 
         -50      4.87216  1.45379e-06 -4.05655e-06  0.000206041 
         -50      4.94003  1.45966e-06   -3.968e-06  0.000206049 
         -50      5.00843  1.46514e-06 -3.88048e-06  0.000206056 
         -50      5.07724  1.47019e-06 -3.79397e-06  0.000206064 
         -50      5.14658  1.47479e-06 -3.70819e-06  0.000206071 
         -50      5.21639  1.47886e-06 -3.62318e-06  0.000206079 
         -50      5.28661  1.48226e-06 -3.53905e-06  0.000206087 
         -50      5.35736  1.48483e-06 -3.45593e-06  0.000206095 
         -50      5.42852  1.48634e-06 -3.37444e-06  0.000206103 
         -50      5.50021  1.48648e-06 -3.29527e-06  0.000206112 
         -50      5.57231  1.48487e-06 -3.21976e-06  0.000206122 
         -50      5.64493  1.48104e-06 -3.14956e-06  0.000206132 
         -50      5.71803  1.48534e-06 -3.07408e-06  0.000206137 
         -50      5.79154  1.48675e-06 -3.00177e-06  0.000206143 
         -50      5.86558  1.48564e-06 -2.93175e-06  0.000206151 
         -50      5.94003  1.48247e-06 -2.86366e-06   0.00020616 
         -50      6.01501  1.47777e-06 -2.79706e-06  0.000206168 
         -50       6.0904  1.47211e-06 -2.73192e-06  0.000206177 
         -50      6.16632  1.46599e-06 -2.66811e-06  0.000206185 
         -50      6.24271  1.45986e-06 -2.60571e-06  0.000206194 
         -50       6.3195  1.45406e-06 -2.54481e-06  0.000206201 
         -50      6.39683  1.44873e-06  -2.4853e-06  0.000206209 
         -50      6.47457  1.44379e-06 -2.42713e-06  0.000206217 
         -50      6.55284  1.43889e-06 -2.36986e-06  0.000206225 
         -50      6.63152  1.43338e-06 -2.31291e-06  0.000206234 
         -50      6.71073  1.42623e-06 -2.25515e-06  0.000206243 
         -50      6.79034  1.42014e-06 -2.20029e-06  0.000206251 
         -50      6.87049  1.41373e-06  -2.1482e-06  0.000206258 
         -50      6.95111  1.40596e-06 -2.09705e-06  0.000206265 
         -50      7.03214  1.39731e-06 -2.04667e-06  0.000206272 
         -50       7.1137  1.38817e-06 -1.99688e-06  0.000206279 
         -50      7.19566  1.37887e-06 -1.94772e-06  0.000206286 
         -50      7.27816  1.36965e-06 -1.89914e-06  0.000206293 
         -50      7.36106  1.36067e-06  -1.8513e-06  0.000206301 
         -50      7.44451  1.35202e-06 -1.80422e-06  0.000206308 
         -50      7.52842  1.34371e-06 -1.75806e-06  0.000206314 
         -50      7.61273  1.33572e-06 -1.71298e-06  0.000206321 
         -50      7.69758  1.32795e-06 -1.66898e-06  0.000206328 
         -50      7.78283  1.32032e-06 -1.62616e-06  0.000206335 
         -50      7.86862  1.31269e-06 -1.58439e-06  0.000206341 
         -50      7.95481  1.30503e-06 -1.54358e-06  0.000206347 
         -50      8.04155  1.29733e-06 -1.50334e-06  0.000206353 
         -50      8.12868  1.28711e-06  -1.4637e-06  0.000206358 
         -50      8.21635  1.27643e-06 -1.42482e-06  0.000206364 
         -50      8.30449  1.26597e-06 -1.38701e-06  0.000206369 
         -50      8.39303  1.25568e-06 -1.35046e-06  0.000206374 
         -50      8.48211  1.24549e-06 -1.31507e-06   0.00020638 
         -50      8.57159  1.23538e-06 -1.28075e-06  0.000206385 
         -50      8.66161  1.22527e-06 -1.24721e-06   0.00020639 
         -50      8.75203  1.21513e-06 -1.21422e-06  0.000206394 
         -50      8.84299  1.20483e-06 -1.18151e-06  0.000206399 
         -50      8.93443  1.19422e-06 -1.14897e-06  0.000206404 
         -50      9.02626  1.18306e-06 -1.11671e-06  0.000206408 
         -50      9.11863  1.17095e-06 -1.08505e-06  0.000206412 
         -50      9.21139  1.15741e-06 -1.05482e-06  0.000206416 
         -50      9.30471  1.14169e-06 -1.02726e-06  0.000206419 
         -50      9.39841  1.12938e-06 -9.99507e-07  0.000206422 
         -50      9.49267  1.12131e-06 -9.70393e-07  0.000206426 
         -50      9.58739  1.11197e-06 -9.43272e-07   0.00020643 
         -50      9.68251  1.10161e-06 -9.17626e-07  0.000206434 
         -50      9.77817  1.09045e-06 -8.93001e-07  0.000206437 
         -50      9.87422  1.07873e-06 -8.69138e-07   0.00020644 
         -50      9.97083  1.06661e-06 -8.45794e-07  0.000206442 
         -50      10.0678  1.05428e-06 -8.22882e-07  0.000206445 
         -50      10.1654  1.04187e-06 -8.00305e-07  0.000206447 
         -50      10.2633  1.02951e-06 -7.78087e-07  0.000206449 
         -50      10.3618  1.01729e-06 -7.56214e-07  0.000206451 
         -50      10.4607  1.00529e-06 -7.34748e-07  0.000206453 
         -50      10.5601  9.93566e-07 -7.13762e-07  0.000206454 
         -50        10.66  9.82121e-07 -6.93272e-07  0.000206456 
         -50      10.7603  9.70982e-07 -6.73357e-07  0.000206457 
         -50      10.8611  9.60115e-07 -6.54009e-07  0.000206457 
         -50      10.9623  9.49507e-07 -6.35261e-07  0.000206458 
         -50      11.0641  9.39096e-07 -6.17062e-07  0.000206458 
         -50      11.1663  9.28838e-07 -5.99375e-07  0.000206459 
         -50       11.269  9.18679e-07 -5.82141e-07  0.000206459 
         -50      11.3721  9.08547e-07 -5.65235e-07  0.000206458 
         -50      11.4757  8.98404e-07 -5.48577e-07  0.000206458 
         -50      11.5798  8.88195e-07 -5.32033e-07  0.000206457 
         -50      11.6844  8.77919e-07 -5.15535e-07  0.000206457 
         -50      11.7894  8.67572e-07 -4.98996e-07  0.000206456 
         -50       11.895  8.57216e-07 -4.82427e-07  0.000206455 
         -50      12.0009  8.46963e-07 -4.65923e-07  0.000206453 
         -50      12.1073  8.36965e-07 -4.49659e-07  0.000206452 
         -50      12.2142  8.27483e-07 -4.34021e-07   0.00020645 
         -50      12.3216  8.18838e-07 -4.19547e-07  0.000206449 
         -50      12.4294  8.11489e-07 -4.07076e-07  0.000206447 
         -50      12.5378  8.05994e-07 -3.97715e-07  0.000206446 
         -50      12.6465  7.95821e-07 -3.89102e-07  0.000206444 
         -50      12.7558  7.69765e-07 -3.73059e-07  0.000206442 
         -50      12.8656  7.64033e-07 -3.59574e-07  0.000206438 
         -50      12.9757  7.56308e-07 -3.47602e-07  0.000206434 
         -50      13.0864  7.42534e-07 -3.34002e-07  0.000206429 
         -50      13.1975  7.30463e-07 -3.21233e-07  0.000206425 
         -50      13.3092  7.19694e-07 -3.09175e-07  0.000206421 
         -50      13.4212  7.09924e-07  -2.9777e-07  0.000206417 
         -50      13.5338  7.00871e-07 -2.86936e-07  0.000206413 
         -50      13.6468  6.92326e-07 -2.76631e-07  0.000206408 
         -50      13.7603  6.84123e-07 -2.66822e-07  0.000206404 
         -50      13.8743  6.76117e-07 -2.57457e-07    0.0002064 
         -50      13.9886  6.68222e-07 -2.48515e-07  0.000206395 
         -50      14.1036  6.60358e-07 -2.39947e-07   0.00020639 
         -50      14.2189  6.52494e-07 -2.31731e-07  0.000206385 
         -50      14.3348  6.44596e-07 -2.23812e-07  0.000206379 
         -50       14.451  6.36669e-07 -2.16158e-07  0.000206374 
         -50      14.5678  6.28707e-07 -2.08705e-07  0.000206368 
         -50      14.6851  6.20732e-07 -2.01405e-07  0.000206361 
         -50      14.8028  6.12771e-07 -1.94205e-07  0.000206355 
         -50       14.921  6.04834e-07 -1.87033e-07  0.000206348 
         -50      15.0396  5.96957e-07 -1.79841e-07  0.000206341 
         -50      15.1588   5.8915e-07 -1.72563e-07  0.000206334 
         -50      15.2783  5.81442e-07 -1.65167e-07  0.000206326 
         -50      15.3984  5.73836e-07 -1.57611e-07  0.000206319 
         -50       15.519  5.66347e-07 -1.49893e-07  0.000206311 
         -50        15.64  5.58987e-07 -1.42045e-07  0.000206303 
         -50      15.7615  5.51748e-07 -1.34116e-07  0.000206295 
         -50      15.8834  5.44644e-07 -1.26234e-07  0.000206287 
         -50      16.0058  5.37668e-07 -1.18563e-07  0.000206279 
         -50      16.1286  5.30843e-07 -1.11371e-07  0.000206271 
         -50       16.252   5.2418e-07 -1.04992e-07  0.000206262 
         -50      16.3759  5.17725e-07 -9.98895e-08  0.000206253 
         -50      16.5002  5.11545e-07 -9.66524e-08  0.000206244 
         -50       16.625  5.05727e-07 -9.60116e-08  0.000206234 
         -50      16.7501  4.93929e-07 -9.15448e-08  0.000206224 
         -50      16.8759  4.78937e-07 -8.14418e-08  0.000206214 
         -50       17.002  4.68511e-07 -7.35378e-08  0.000206205 
         -50      17.1287  4.61121e-07 -6.72095e-08  0.000206195 
         -50      17.2557  4.55592e-07 -6.19672e-08  0.000206185 
         -50      17.3834   4.5101e-07 -5.74024e-08  0.000206175 
         -50      17.5115  4.46724e-07 -5.32104e-08  0.000206165 
         -50      17.6399  4.42295e-07 -4.91658e-08  0.000206154 
         -50       17.769  4.37454e-07 -4.51051e-08  0.000206144 
         -50      17.8984  4.32093e-07  -4.0939e-08  0.000206133 
         -50      18.0284  4.26203e-07  -3.6617e-08  0.000206121 
         -50      18.1587  4.19878e-07 -3.21446e-08   0.00020611 
         -50      18.2896  4.13249e-07 -2.75464e-08  0.000206098 
         -50       18.421  4.06495e-07  -2.2882e-08  0.000206086 
         -50      18.5528    3.998e-07  -1.8227e-08  0.000206073 
         -50      18.6851  3.93321e-07 -1.36529e-08  0.000206061 
         -50      18.8178  3.87201e-07 -9.24532e-09  0.000206048 
         -50      18.9511  3.81517e-07 -5.06732e-09  0.000206035 
         -50      19.0847  3.76307e-07 -1.18063e-09  0.000206022 
         -50      19.2189  3.71522e-07   2.3875e-09  0.000206009 
         -50      19.3535  3.67059e-07  5.62532e-09  0.000205995 
         -50      19.4886  3.62728e-07  8.56456e-09  0.000205982 
         -50      19.6242  3.58284e-07   1.1266e-08  0.000205968 
         -50      19.7602  3.53422e-07  1.38319e-08  0.000205955 
         -50      19.8968  3.47787e-07  1.64138e-08  0.000205942 
         -50      20.0337  3.41017e-07  1.91999e-08  0.000205929 
         -50      20.1712  3.32733e-07  2.24332e-08  0.000205916 
         -50      20.3091  3.23819e-07  2.62872e-08  0.000205902 
         -50      20.4475  3.18675e-07  3.02606e-08  0.000205886 
         -50      20.5864  3.14379e-07   3.4016e-08   0.00020587 
         -50      20.7257   3.1095e-07  3.69751e-08  0.000205854 
         -50      20.8655  3.08389e-07  3.85367e-08  0.000205838 
         -50      21.0058  3.06685e-07  3.80616e-08  0.000205821 
         -50      21.1465  3.05778e-07  3.48801e-08  0.000205805 
         -50      21.2877  3.12244e-07   3.9691e-08  0.000205789 
         -50      21.4294  3.14982e-07   5.2159e-08  0.000205774 
         -50      21.5716  3.07358e-07  5.82975e-08  0.000205759 
         -50      21.7142   2.9515e-07  5.99349e-08  0.000205745 
         -50      21.8573  2.81325e-07  5.82227e-08   0.00020573 
         -50      22.0008  2.68193e-07  5.57961e-08  0.000205715 
         -50      22.1449  2.59904e-07  5.72825e-08  0.000205697 
         -50      22.2893  2.54659e-07  5.93617e-08   0.00020568 
         -50      22.4344  2.51859e-07  6.19001e-08  0.000205662 
         -50      22.5797  2.50861e-07  6.47568e-08  0.000205644 
         -50      22.7257  2.51002e-07   6.7806e-08  0.000205626 
         -50      22.8721  2.51648e-07  7.09271e-08  0.000205608 
         -50      23.0189  2.52223e-07  7.40156e-08   0.00020559 
         -50      23.1663  2.52243e-07  7.69949e-08  0.000205572 
         -50       23.314  2.51335e-07  7.98005e-08  0.000205553 
         -50      23.4623  2.49255e-07  8.24005e-08  0.000205535 
         -50       23.611  2.45898e-07  8.47769e-08  0.000205517 
         -50      23.7602  2.41294e-07  8.69407e-08  0.000205498 
         -50        23.91  2.35613e-07  8.89142e-08   0.00020548 
         -50        24.06  2.29152e-07  9.07325e-08  0.000205461 
         -50      24.2107  2.22284e-07  9.24405e-08  0.000205442 
         -50      24.3617  2.15474e-07  9.40737e-08  0.000205423 
         -50      24.5133  2.09182e-07   9.5659e-08  0.000205404 
         -50      24.6653   2.0386e-07   9.7191e-08  0.000205385 
         -50      24.8178  1.99846e-07  9.86274e-08  0.000205365 
         -50      24.9708  1.97319e-07  9.98625e-08  0.000205345 
         -50      25.1242   1.9619e-07  1.00712e-07  0.000205324 
         -50      25.2781  1.96006e-07  1.00893e-07  0.000205304 
         -50      25.4324  1.95836e-07  9.99939e-08  0.000205282 
         -50      25.5873  1.98631e-07  1.03424e-07  0.000205262 
         -50      25.7426  1.95635e-07  1.06787e-07  0.000205242 
         -50      25.8984  1.89328e-07  1.09496e-07  0.000205222 
         -50      26.0546  1.82196e-07  1.11487e-07  0.000205202 
         -50      26.2114  1.75912e-07  1.12788e-07  0.000205181 
         -50      26.3686  1.71348e-07  1.13515e-07  0.000205159 
         -50      26.5262  1.68615e-07  1.13869e-07  0.000205138 
         -50      26.6844  1.67227e-07  1.14093e-07  0.000205116 
         -50      26.8429  1.66369e-07  1.14415e-07  0.000205094 
         -50       27.002  1.65264e-07  1.14956e-07  0.000205071 
         -50      27.1615  1.63662e-07   1.1561e-07  0.000205049 
         -50      27.3216  1.62438e-07  1.15902e-07  0.000205027 
         -50      27.4821  1.64335e-07    1.148e-07  0.000205004 
         -50       27.643  1.60653e-07  1.15191e-07  0.000204982 
         -50      27.8044    1.531e-07   1.1694e-07   0.00020496 
         -50      27.9663  1.47592e-07  1.18168e-07  0.000204937 
         -50      28.1287  1.43675e-07  1.19014e-07  0.000204914 
         -50      28.2914  1.40969e-07  1.19591e-07  0.000204891 
         -50      28.4548  1.39135e-07  1.19993e-07  0.000204868 
         -50      28.6185  1.37892e-07  1.20296e-07  0.000204845 
         -50      28.7828  1.37001e-07   1.2056e-07  0.000204821 
         -50      28.9475  1.36269e-07  1.20829e-07  0.000204797 
         -50      29.1126  1.35541e-07  1.21133e-07  0.000204773 
         -50      29.2784  1.34697e-07  1.21492e-07  0.000204749 
         -50      29.4444  1.33652e-07  1.21915e-07  0.000204725 
         -50       29.611  1.32346e-07  1.22404e-07    0.0002047 
         -50       29.778  1.30751e-07  1.22953e-07  0.000204676 
         -50      29.9456  1.28854e-07   1.2355e-07  0.000204651 
         -50      30.1137  1.26665e-07   1.2418e-07  0.000204626 
         -50      30.2821  1.24212e-07  1.24826e-07  0.000204602 
         -50      30.4511  1.21528e-07  1.25468e-07  0.000204577 
         -50      30.6204  1.18667e-07  1.26086e-07  0.000204552 
         -50      30.7903  1.15678e-07  1.26662e-07  0.000204527 
         -50      30.9606  1.12625e-07  1.27178e-07  0.000204501 
         -50      31.1315  1.09562e-07   1.2762e-07  0.000204476 
         -50      31.3028   1.0655e-07  1.27977e-07   0.00020445 
         -50      31.4745  1.03649e-07  1.28241e-07  0.000204425 
         -50      31.6468  1.00902e-07   1.2841e-07  0.000204399 
         -50      31.8194  9.83566e-08  1.28487e-07  0.000204373 
         -50      31.9926  9.60417e-08  1.28477e-07  0.000204347 
         -50      32.1662  9.39826e-08  1.28394e-07  0.000204321 
         -50      32.3404  9.21858e-08  1.28255e-07  0.000204295 
         -50      32.5149  9.06505e-08  1.28081e-07  0.000204269 
         -50        32.69  8.93561e-08  1.27899e-07  0.000204242 
         -50      32.8655  8.82712e-08  1.27737e-07  0.000204216 
         -50      33.0414  8.73485e-08  1.27629e-07  0.000204189 
         -50       33.218  8.65239e-08  1.27607e-07  0.000204162 
         -50      33.3948  8.57209e-08  1.27706e-07  0.000204135 
         -50      33.5723  8.48469e-08  1.27959e-07  0.000204108 
         -50        33.75  8.37988e-08  1.28394e-07  0.000204081 
         -50      33.9284  8.24591e-08  1.29035e-07  0.000204053 
         -50      34.1073   8.0703e-08  1.29901e-07  0.000204026 
         -50      34.2865  7.83996e-08  1.30995e-07  0.000203998 
         -50      34.4663  7.54079e-08  1.32312e-07   0.00020397 
         -50      34.6465  7.15936e-08  1.33828e-07  0.000203943 
         -50      34.8272  6.68142e-08  1.35502e-07  0.000203915 
         -50      35.0083  6.61596e-08  1.35343e-07  0.000203887 
         -50        35.19  7.19148e-08  1.33819e-07  0.000203858 
         -50      35.3721  8.25204e-08   1.3191e-07  0.000203828 
         -50      35.5546  9.44261e-08  1.29586e-07  0.000203799 
         -50      35.7377  8.37078e-08  1.29487e-07  0.000203771 
         -50      35.9211  7.60621e-08  1.28701e-07  0.000203743 
         -50      36.1052   7.0839e-08  1.27229e-07  0.000203715 
         -50      36.2895  6.74992e-08  1.25082e-07  0.000203686 
         -50      36.4745  6.55716e-08  1.22282e-07  0.000203657 
         -50      36.6598  6.46686e-08  1.18864e-07  0.000203627 
         -50      36.8457  6.45661e-08  1.15293e-07  0.000203598 
         -50      37.0321  6.62634e-08  1.18651e-07  0.000203568 
         -50      37.2188  6.76026e-08  1.21844e-07  0.000203538 
         -50      37.4062  6.85569e-08  1.24847e-07  0.000203508 
         -50      37.5938  6.91222e-08  1.27631e-07  0.000203479 
         -50      37.7821  6.93191e-08  1.30186e-07  0.000203449 
         -50      37.9707  6.91839e-08  1.32501e-07  0.000203419 
         -50      38.1599  6.87658e-08  1.34577e-07  0.000203389 
         -50      38.3496  6.81227e-08  1.36412e-07  0.000203359 
         -50      38.5396  6.73179e-08  1.38012e-07  0.000203328 
         -50      38.7302  6.64138e-08  1.39384e-07  0.000203298 
         -50      38.9211  6.54733e-08  1.40535e-07  0.000203268 
         -50      39.1127  6.45512e-08  1.41474e-07  0.000203237 
         -50      39.3046  6.36979e-08  1.42209e-07  0.000203207 
         -50      39.4971  6.29511e-08  1.42747e-07  0.000203176 
         -50      39.6899  6.23398e-08  1.43094e-07  0.000203146 
         -50      39.8833  6.18784e-08  1.43255e-07  0.000203115 
         -50      40.0772  6.15693e-08  1.43234e-07  0.000203084 
         -50      40.2714  6.14009e-08  1.43032e-07  0.000203053 
         -50      40.4663  6.13479e-08  1.42652e-07  0.000203022 
         -50      40.6615  6.13732e-08  1.42095e-07  0.000202991 
         -50      40.8573  6.14282e-08  1.41361e-07   0.00020296 
         -50      41.0534  6.14553e-08  1.40455e-07  0.000202928 
         -50      41.2501  6.13907e-08  1.39379e-07  0.000202897 
         -50      41.4473  6.11674e-08  1.38143e-07  0.000202865 
         -50      41.6448  6.07198e-08  1.36761e-07  0.000202834 
         -50      41.8429   5.9987e-08  1.35252e-07  0.000202802 
         -50      42.0414  5.89213e-08  1.33649e-07   0.00020277 
         -50      42.2405  5.74895e-08   1.3199e-07  0.000202739 
         -50      42.4399  5.56874e-08  1.30333e-07  0.000202707 
         -50      42.6399  5.35382e-08  1.28747e-07  0.000202675 
         -50      42.8404  5.11109e-08  1.27326e-07  0.000202643 
         -50      43.0412   4.8527e-08  1.26187e-07   0.00020261 
         -50      43.2426  4.59637e-08  1.25472e-07  0.000202578 
         -50      43.4444  4.36806e-08  1.25357e-07  0.000202546 
         -50      43.6467  4.20164e-08  1.26052e-07  0.000202514 
         -50      43.8494  4.14167e-08  1.27809e-07  0.000202481 
         -50      44.0527  4.24398e-08  1.30929e-07  0.000202449 
         -50      44.2563  4.58672e-08  1.35478e-07  0.000202417 
         -50      44.4606  5.30469e-08  1.29824e-07  0.000202383 
         -50      44.6653  5.71606e-08   1.2595e-07   0.00020235 
         -50      44.8704  5.85813e-08  1.23522e-07  0.000202317 
         -50       45.076  5.77216e-08  1.22237e-07  0.000202285 
         -50       45.282  5.50344e-08  1.21837e-07  0.000202252 
         -50      45.4886  5.10118e-08  1.22097e-07  0.000202219 
         -50      45.6955  4.62047e-08  1.22826e-07  0.000202187 
         -50       45.903   4.1203e-08  1.23867e-07  0.000202154 
         -50      46.1111  3.66655e-08  1.25096e-07  0.000202121 
         -50      46.3194  3.33105e-08  1.26416e-07  0.000202089 
         -50      46.5283   3.1915e-08  1.27764e-07  0.000202055 
         -50      46.7376  3.33336e-08  1.29099e-07  0.000202022 
         -50      46.9475  3.84987e-08  1.30409e-07  0.000201988 
         -50      47.1577   4.8413e-08    1.317e-07  0.000201954 
         -50      47.3685  5.37001e-08  1.32194e-07   0.00020192 
         -50      47.5798  4.51876e-08  1.30985e-07  0.000201888 
         -50      47.7914  3.89671e-08  1.29457e-07  0.000201855 
         -50      48.0037  3.45823e-08  1.27805e-07  0.000201822 