Variables = x, y, u, v, p

Zone, I=20800, F=POINT
         -50            0            0            0  -0.00026666 
         -50     0.000234  5.39977e-09 -1.33045e-11  -0.00026666 
         -50     0.000939  2.14554e-08 -4.33716e-11  -0.00026666 
         -50     0.002113  4.74812e-08  -6.1081e-11  -0.00026666 
         -50     0.003759  8.24715e-08 -2.10436e-11  -0.00026666 
         -50     0.005872  1.24825e-07  1.34801e-10 -0.000266659 
         -50     0.008457  1.72734e-07  4.75025e-10 -0.000266659 
         -50      0.01151  2.23848e-07  1.07637e-09 -0.000266659 
         -50     0.015036  2.75664e-07  2.02776e-09 -0.000266659 
         -50     0.019031  3.25328e-07  3.43067e-09 -0.000266659 
         -50     0.023493   3.6996e-07  5.40548e-09 -0.000266659 
         -50     0.028429  4.06809e-07  8.09942e-09 -0.000266659 
         -50     0.033831  4.33179e-07  1.16724e-08 -0.000266659 
         -50     0.039706  4.46749e-07  1.63032e-08 -0.000266659 
         -50     0.046047  4.45474e-07  2.21519e-08 -0.000266659 
         -50     0.052863   4.2765e-07  2.93617e-08 -0.000266659 
         -50      0.06015   3.9191e-07  3.80233e-08 -0.000266659 
         -50       0.0679  3.37404e-07  4.82137e-08 -0.000266658 
         -50     0.076126  2.64016e-07  6.01678e-08 -0.000266658 
         -50     0.084816  1.73483e-07  7.44957e-08 -0.000266658 
         -50     0.093982   6.6427e-08  8.98381e-08 -0.000266658 
         -50     0.103611 -5.41231e-08  1.06151e-07 -0.000266658 
         -50     0.113718 -1.85402e-07  1.24355e-07 -0.000266658 
         -50     0.124286 -3.23595e-07  1.44471e-07 -0.000266658 
         -50     0.135333 -4.64829e-07  1.65873e-07 -0.000266658 
         -50      0.14685 -6.04545e-07  1.87474e-07 -0.000266658 
         -50     0.158827 -7.38087e-07  2.08223e-07 -0.000266658 
         -50     0.171284  -8.6127e-07  2.27693e-07 -0.000266658 
         -50     0.184201 -9.69884e-07  2.46453e-07 -0.000266658 
         -50     0.197599  -1.0607e-06  2.66457e-07 -0.000266658 
         -50     0.211455 -1.13092e-06  2.90652e-07 -0.000266658 
         -50     0.225792 -1.17879e-06  3.21917e-07 -0.000266658 
         -50       0.2406 -1.20286e-06  3.60245e-07 -0.000266658 
         -50     0.255865 -1.20016e-06  4.10603e-07 -0.000266659 
         -50     0.271613 -1.17167e-06  4.87204e-07 -0.000266659 
         -50     0.287818  -1.1166e-06  5.83462e-07  -0.00026666 
         -50     0.304506 -1.02918e-06  7.00028e-07 -0.000266662 
         -50      0.32165 -9.04451e-07  8.27744e-07 -0.000266664 
         -50     0.339278 -7.37884e-07  9.50679e-07 -0.000266666 
         -50     0.357377 -5.26297e-07  1.04857e-06 -0.000266668 
         -50      0.37593 -2.67992e-07  1.10105e-06 -0.000266669 
         -50     0.394968  3.78604e-08  1.09195e-06 -0.000266668 
         -50     0.414461   3.8944e-07  1.01342e-06 -0.000266666 
         -50      0.43444  7.84081e-07  8.69581e-07 -0.000266662 
         -50     0.454872  1.21596e-06  6.79668e-07 -0.000266657 
         -50     0.475791   1.6787e-06  4.77543e-07  -0.00026665 
         -50     0.497163  2.16276e-06  3.10004e-07 -0.000266643 
         -50     0.519021  2.65874e-06  2.28088e-07 -0.000266635 
         -50      0.54135  3.15539e-06  2.74057e-07 -0.000266629 
         -50     0.564131  3.64156e-06  4.58064e-07 -0.000266626 
         -50       0.5874  4.10862e-06  7.25453e-07 -0.000266628 
         -50     0.611121  4.55664e-06  9.04652e-07 -0.000266636 
         -50      0.63533  5.04941e-06  9.36016e-07 -0.000266632 
         -50      0.65999  5.49689e-06  9.80502e-07 -0.000266632 
         -50     0.685139  5.87918e-06  1.03177e-06 -0.000266634 
         -50     0.710759  6.18063e-06  1.08395e-06 -0.000266638 
         -50     0.736828  6.39121e-06  1.13181e-06 -0.000266643 
         -50     0.763387  6.50669e-06  1.17097e-06 -0.000266648 
         -50     0.790396  6.52742e-06  1.19772e-06 -0.000266653 
         -50     0.817896  6.45867e-06  1.20934e-06 -0.000266657 
         -50     0.845843     6.31e-06  1.20392e-06 -0.000266659 
         -50     0.874283  6.09412e-06  1.18051e-06  -0.00026666 
         -50      0.90317  5.82706e-06  1.13912e-06 -0.000266659 
         -50     0.932551   5.5259e-06  1.08055e-06 -0.000266656 
         -50     0.962401  5.20917e-06  1.00657e-06  -0.00026665 
         -50     0.992697  4.89513e-06  9.19767e-07 -0.000266643 
         -50      1.02349  4.59989e-06  8.23186e-07 -0.000266635 
         -50      1.05472  4.33807e-06  7.20727e-07 -0.000266625 
         -50      1.08645  4.11985e-06  6.16341e-07 -0.000266614 
         -50      1.11863   3.9518e-06  5.14506e-07 -0.000266603 
         -50       1.1513  3.83483e-06  4.19326e-07 -0.000266593 
         -50      1.18444  3.76481e-06  3.34854e-07 -0.000266583 
         -50      1.21802   3.7321e-06  2.64504e-07 -0.000266575 
         -50      1.25211  3.72223e-06  2.10591e-07  -0.00026657 
         -50      1.28663  3.71723e-06  1.74339e-07 -0.000266566 
         -50      1.32165  3.69769e-06  1.55126e-07 -0.000266566 
         -50      1.35712  3.64584e-06  1.50312e-07 -0.000266568 
         -50      1.39308   3.5497e-06  1.54639e-07 -0.000266572 
         -50      1.42951  3.40901e-06  1.59809e-07 -0.000266578 
         -50      1.46638  3.24259e-06  1.53978e-07 -0.000266584 
         -50      1.50375  3.09713e-06  1.21219e-07 -0.000266587 
         -50      1.54156  2.93919e-06  5.10481e-08  -0.00026659 
         -50      1.57987   2.7687e-06 -1.53687e-08 -0.000266592 
         -50      1.61863  2.59154e-06 -7.70702e-08 -0.000266595 
         -50      1.65788  2.40939e-06 -1.34671e-07 -0.000266597 
         -50      1.69757   2.2244e-06 -1.88557e-07   -0.0002666 
         -50      1.73776  2.03799e-06 -2.39268e-07 -0.000266603 
         -50      1.77842  1.85191e-06 -2.87169e-07 -0.000266605 
         -50      1.81952  1.66778e-06 -3.32599e-07 -0.000266608 
         -50      1.86113  1.48663e-06 -3.75968e-07  -0.00026661 
         -50      1.90316  1.30994e-06 -4.17501e-07 -0.000266613 
         -50      1.94571  1.13847e-06 -4.57522e-07 -0.000266615 
         -50      1.98869   9.7341e-07 -4.96185e-07 -0.000266618 
         -50      2.03217  8.15237e-07 -5.33734e-07 -0.000266621 
         -50      2.07612   6.6471e-07 -5.70281e-07 -0.000266623 
         -50      2.12051  5.22415e-07  -6.0591e-07 -0.000266626 
         -50       2.1654  3.88469e-07 -6.40752e-07 -0.000266628 
         -50      2.21073  2.63302e-07 -6.74802e-07 -0.000266631 
         -50      2.25656  1.46808e-07 -7.08134e-07 -0.000266633 
         -50      2.30283  3.91549e-08 -7.40694e-07 -0.000266636 
         -50       2.3496 -5.99427e-08 -7.72511e-07 -0.000266638 
         -50      2.39685 -1.50608e-07 -8.03521e-07  -0.00026664 
         -50      2.44452 -2.33062e-07 -8.33651e-07 -0.000266643 
         -50      2.49271 -3.07787e-07 -8.62892e-07 -0.000266645 
         -50      2.54132  -3.7507e-07 -8.91138e-07 -0.000266647 
         -50      2.59044 -4.35456e-07 -9.18375e-07  -0.00026665 
         -50         2.64 -4.89312e-07 -9.44506e-07 -0.000266652 
         -50      2.69006 -5.37195e-07 -9.69528e-07 -0.000266654 
         -50      2.74056 -5.79493e-07 -9.93369e-07 -0.000266656 
         -50      2.79156 -6.16721e-07 -1.01605e-06 -0.000266658 
         -50      2.84304 -6.49258e-07 -1.03755e-06  -0.00026666 
         -50      2.89494 -6.77456e-07 -1.05787e-06 -0.000266661 
         -50      2.94735 -7.01684e-07 -1.07709e-06 -0.000266663 
         -50       3.0002 -7.22164e-07 -1.09523e-06 -0.000266665 
         -50      3.05355 -7.39133e-07 -1.11238e-06 -0.000266666 
         -50      3.10733 -7.52707e-07 -1.12861e-06 -0.000266667 
         -50      3.16163 -7.62993e-07 -1.14401e-06 -0.000266669 
         -50      3.21639  -7.7002e-07 -1.15866e-06  -0.00026667 
         -50      3.27158 -7.73793e-07 -1.17262e-06 -0.000266671 
         -50      3.32729 -7.74321e-07 -1.18592e-06 -0.000266671 
         -50      3.38342 -7.71624e-07 -1.19854e-06 -0.000266672 
         -50      3.44007 -7.65781e-07  -1.2104e-06 -0.000266672 
         -50      3.49714 -7.56992e-07 -1.22129e-06 -0.000266673 
         -50      3.55472 -7.45602e-07 -1.23093e-06 -0.000266673 
         -50      3.61273 -7.32228e-07 -1.23882e-06 -0.000266673 
         -50      3.67125 -7.17773e-07 -1.24427e-06 -0.000266673 
         -50      3.73025 -7.03597e-07 -1.24635e-06 -0.000266673 
         -50      3.78967 -6.98908e-07 -1.24631e-06 -0.000266674 
         -50      3.84961 -6.95446e-07 -1.24821e-06 -0.000266674 
         -50      3.90996 -6.89272e-07 -1.25135e-06 -0.000266673 
         -50      3.97084 -6.75253e-07 -1.25302e-06 -0.000266673 
         -50      4.03214 -6.61071e-07 -1.25384e-06 -0.000266673 
         -50      4.09395 -6.47949e-07 -1.25408e-06 -0.000266673 
         -50      4.15624 -6.35958e-07  -1.2538e-06 -0.000266673 
         -50      4.21895 -6.25044e-07 -1.25302e-06 -0.000266672 
         -50      4.28217 -6.15041e-07 -1.25178e-06 -0.000266671 
         -50      4.34582 -6.05756e-07 -1.25011e-06 -0.000266671 
         -50      4.40998 -5.96939e-07 -1.24804e-06  -0.00026667 
         -50      4.47457 -5.88367e-07 -1.24559e-06 -0.000266669 
         -50      4.53968 -5.79813e-07 -1.24278e-06 -0.000266668 
         -50      4.60525 -5.71112e-07 -1.23964e-06 -0.000266667 
         -50      4.67125 -5.62162e-07 -1.23618e-06 -0.000266665 
         -50      4.73777 -5.52914e-07 -1.23242e-06 -0.000266664 
         -50       4.8047 -5.43423e-07 -1.22837e-06 -0.000266663 
         -50      4.87216 -5.33795e-07 -1.22404e-06 -0.000266661 
         -50      4.94003 -5.24234e-07 -1.21946e-06  -0.00026666 
         -50      5.00843 -5.14963e-07 -1.21462e-06 -0.000266659 
         -50      5.07724 -5.06259e-07 -1.20956e-06 -0.000266658 
         -50      5.14658  -4.9835e-07 -1.20429e-06 -0.000266656 
         -50      5.21639 -4.91414e-07 -1.19883e-06 -0.000266655 
         -50      5.28661 -4.85488e-07 -1.19324e-06 -0.000266654 
         -50      5.35736 -4.80373e-07 -1.18754e-06 -0.000266652 
         -50      5.42852  -4.7556e-07 -1.18182e-06 -0.000266651 
         -50      5.50021  -4.7008e-07 -1.17613e-06 -0.000266649 
         -50      5.57231 -4.62394e-07 -1.17059e-06 -0.000266647 
         -50      5.64493 -4.50191e-07 -1.16531e-06 -0.000266644 
         -50      5.71803 -4.52728e-07 -1.15783e-06 -0.000266643 
         -50      5.79154 -4.49557e-07 -1.15042e-06 -0.000266641 
         -50      5.86558 -4.42883e-07 -1.14332e-06 -0.000266639 
         -50      5.94003 -4.34553e-07 -1.13657e-06 -0.000266637 
         -50      6.01501 -4.26024e-07 -1.13002e-06 -0.000266634 
         -50       6.0904 -4.18407e-07 -1.12342e-06 -0.000266632 
         -50      6.16632 -4.12422e-07 -1.11649e-06  -0.00026663 
         -50      6.24271 -4.08445e-07 -1.10898e-06 -0.000266627 
         -50       6.3195  -4.0649e-07 -1.10072e-06 -0.000266625 
         -50      6.39683 -4.06216e-07  -1.0917e-06 -0.000266622 
         -50      6.47457 -4.06949e-07 -1.08219e-06  -0.00026662 
         -50      6.55284 -4.07683e-07 -1.07272e-06 -0.000266617 
         -50      6.63152 -4.07099e-07 -1.06423e-06 -0.000266614 
         -50      6.71073 -4.03573e-07 -1.05812e-06 -0.000266611 
         -50      6.79034 -3.99713e-07 -1.04889e-06 -0.000266608 
         -50      6.87049 -3.96314e-07  -1.0381e-06 -0.000266606 
         -50      6.95111 -3.92426e-07  -1.0281e-06 -0.000266603 
         -50      7.03214 -3.88294e-07 -1.01866e-06   -0.0002666 
         -50       7.1137 -3.84094e-07 -1.00961e-06 -0.000266597 
         -50      7.19566 -3.79952e-07 -1.00082e-06 -0.000266594 
         -50      7.27816 -3.75921e-07 -9.92175e-07 -0.000266591 
         -50      7.36106 -3.72015e-07 -9.83604e-07 -0.000266587 
         -50      7.44451 -3.68194e-07 -9.75009e-07 -0.000266584 
         -50      7.52842 -3.64399e-07 -9.66308e-07 -0.000266581 
         -50      7.61273 -3.60565e-07 -9.57395e-07 -0.000266577 
         -50      7.69758 -3.56641e-07 -9.48117e-07 -0.000266574 
         -50      7.78283 -3.52639e-07 -9.38305e-07 -0.000266571 
         -50      7.86862 -3.48652e-07 -9.27716e-07 -0.000266568 
         -50      7.95481 -3.44929e-07 -9.16082e-07 -0.000266565 
         -50      8.04155 -3.41901e-07 -9.03039e-07 -0.000266562 
         -50      8.12868 -3.37263e-07 -8.93313e-07 -0.000266558 
         -50      8.21635 -3.31569e-07 -8.84044e-07 -0.000266553 
         -50      8.30449 -3.26011e-07 -8.74295e-07 -0.000266548 
         -50      8.39303 -3.21077e-07 -8.64395e-07 -0.000266543 
         -50      8.48211 -3.17089e-07 -8.54531e-07 -0.000266539 
         -50      8.57159 -3.14222e-07 -8.44806e-07 -0.000266534 
         -50      8.66161 -3.12471e-07 -8.35204e-07  -0.00026653 
         -50      8.75203 -3.11657e-07 -8.25672e-07 -0.000266526 
         -50      8.84299 -3.11411e-07 -8.16108e-07 -0.000266521 
         -50      8.93443 -3.11166e-07 -8.06469e-07 -0.000266517 
         -50      9.02626 -3.10147e-07 -7.96822e-07 -0.000266512 
         -50      9.11863 -3.07362e-07 -7.87409e-07 -0.000266508 
         -50      9.21139 -3.01603e-07 -7.78814e-07 -0.000266503 
         -50      9.30471  -2.9141e-07 -7.72025e-07 -0.000266498 
         -50      9.39841 -2.86826e-07 -7.63425e-07 -0.000266493 
         -50      9.49267 -2.89698e-07 -7.51654e-07 -0.000266488 
         -50      9.58739 -2.90306e-07 -7.40843e-07 -0.000266483 
         -50      9.68251 -2.89243e-07 -7.30869e-07 -0.000266477 
         -50      9.77817 -2.87017e-07 -7.21564e-07 -0.000266472 
         -50      9.87422 -2.84064e-07 -7.12784e-07 -0.000266466 
         -50      9.97083 -2.80737e-07 -7.04354e-07 -0.000266461 
         -50      10.0678  -2.7733e-07 -6.96131e-07 -0.000266455 
         -50      10.1654 -2.74058e-07 -6.87962e-07 -0.000266449 
         -50      10.2633 -2.71086e-07 -6.79736e-07 -0.000266443 
         -50      10.3618 -2.68515e-07 -6.71343e-07 -0.000266437 
         -50      10.4607 -2.66398e-07 -6.62721e-07 -0.000266431 
         -50      10.5601 -2.64745e-07 -6.53841e-07 -0.000266425 
         -50        10.66 -2.63521e-07 -6.44685e-07 -0.000266418 
         -50      10.7603 -2.62663e-07 -6.35301e-07 -0.000266411 
         -50      10.8611  -2.6208e-07 -6.25739e-07 -0.000266405 
         -50      10.9623 -2.61664e-07  -6.1611e-07 -0.000266398 
         -50      11.0641 -2.61295e-07 -6.06522e-07  -0.00026639 
         -50      11.1663 -2.60849e-07 -5.97123e-07 -0.000266383 
         -50       11.269  -2.6021e-07 -5.88074e-07 -0.000266376 
         -50      11.3721 -2.59275e-07 -5.79509e-07 -0.000266368 
         -50      11.4757 -2.57965e-07 -5.71581e-07  -0.00026636 
         -50      11.5798  -2.5623e-07 -5.64381e-07 -0.000266353 
         -50      11.6844 -2.54071e-07 -5.57977e-07 -0.000266345 
         -50      11.7894 -2.51532e-07 -5.52337e-07 -0.000266337 
         -50       11.895 -2.48729e-07  -5.4735e-07 -0.000266329 
         -50      12.0009 -2.45852e-07 -5.42771e-07 -0.000266321 
         -50      12.1073 -2.43171e-07 -5.38182e-07 -0.000266313 
         -50      12.2142 -2.41061e-07 -5.32977e-07 -0.000266305 
         -50      12.3216 -2.40001e-07 -5.26293e-07 -0.000266297 
         -50      12.4294 -2.40598e-07 -5.16997e-07 -0.000266289 
         -50      12.5378 -2.43592e-07 -5.03587e-07 -0.000266282 
         -50      12.6465 -2.40885e-07 -4.87983e-07 -0.000266273 
         -50      12.7558 -2.21449e-07 -4.73691e-07 -0.000266263 
         -50      12.8656 -2.32809e-07 -4.76279e-07 -0.000266253 
         -50      12.9757 -2.39229e-07 -4.75036e-07 -0.000266243 
         -50      13.0864 -2.33575e-07 -4.72654e-07 -0.000266233 
         -50      13.1975 -2.29968e-07 -4.67241e-07 -0.000266223 
         -50      13.3092 -2.27599e-07 -4.59759e-07 -0.000266213 
         -50      13.4212 -2.25856e-07 -4.51017e-07 -0.000266203 
         -50      13.5338 -2.24284e-07 -4.41639e-07 -0.000266193 
         -50      13.6468 -2.22575e-07 -4.32124e-07 -0.000266183 
         -50      13.7603 -2.20545e-07 -4.22846e-07 -0.000266172 
         -50      13.8743 -2.18106e-07 -4.14038e-07 -0.000266162 
         -50      13.9886 -2.15259e-07 -4.05869e-07 -0.000266151 
         -50      14.1036 -2.12061e-07 -3.98393e-07  -0.00026614 
         -50      14.2189 -2.08623e-07 -3.91622e-07 -0.000266129 
         -50      14.3348 -2.05077e-07 -3.85492e-07 -0.000266118 
         -50       14.451 -2.01576e-07 -3.79915e-07 -0.000266107 
         -50      14.5678 -1.98263e-07  -3.7476e-07 -0.000266095 
         -50      14.6851 -1.95278e-07 -3.69893e-07 -0.000266083 
         -50      14.8028 -1.92734e-07 -3.65176e-07 -0.000266071 
         -50       14.921 -1.90708e-07 -3.60466e-07 -0.000266059 
         -50      15.0396 -1.89246e-07 -3.55653e-07 -0.000266046 
         -50      15.1588 -1.88347e-07 -3.50637e-07 -0.000266034 
         -50      15.2783  -1.8797e-07 -3.45367e-07 -0.000266021 
         -50      15.3984 -1.88033e-07 -3.39816e-07 -0.000266008 
         -50       15.519 -1.88419e-07 -3.34009e-07 -0.000265995 
         -50        15.64 -1.88981e-07 -3.28023e-07 -0.000265982 
         -50      15.7615 -1.89561e-07 -3.21962e-07 -0.000265969 
         -50      15.8834 -1.89999e-07 -3.16001e-07 -0.000265956 
         -50      16.0058 -1.90158e-07 -3.10334e-07 -0.000265943 
         -50      16.1286 -1.89947e-07 -3.05213e-07 -0.000265929 
         -50       16.252 -1.89351e-07 -3.00901e-07 -0.000265916 
         -50      16.3759 -1.88464e-07 -2.97691e-07 -0.000265902 
         -50      16.5002 -1.87536e-07 -2.95881e-07 -0.000265888 
         -50       16.625  -1.8701e-07 -2.95748e-07 -0.000265873 
         -50      16.7501 -1.76786e-07 -2.91991e-07 -0.000265858 
         -50      16.8759  -1.6227e-07 -2.84104e-07 -0.000265843 
         -50       17.002 -1.56161e-07 -2.78256e-07 -0.000265827 
         -50      17.1287 -1.55562e-07 -2.73775e-07 -0.000265812 
         -50      17.2557 -1.58181e-07  -2.7013e-07 -0.000265797 
         -50      17.3834 -1.62262e-07 -2.66889e-07 -0.000265781 
         -50      17.5115 -1.66509e-07 -2.63733e-07 -0.000265765 
         -50      17.6399 -1.70032e-07 -2.60429e-07  -0.00026575 
         -50       17.769 -1.72295e-07 -2.56819e-07 -0.000265734 
         -50      17.8984 -1.73039e-07 -2.52822e-07 -0.000265717 
         -50      18.0284 -1.72242e-07   -2.484e-07 -0.000265701 
         -50      18.1587 -1.70057e-07 -2.43576e-07 -0.000265685 
         -50      18.2896  -1.6676e-07 -2.38396e-07 -0.000265668 
         -50       18.421 -1.62711e-07 -2.32942e-07 -0.000265651 
         -50      18.5528  -1.5831e-07 -2.27316e-07 -0.000265634 
         -50      18.6851 -1.53942e-07 -2.21614e-07 -0.000265616 
         -50      18.8178 -1.49968e-07 -2.15953e-07 -0.000265599 
         -50      18.9511 -1.46673e-07 -2.10428e-07 -0.000265581 
         -50      19.0847 -1.44262e-07 -2.05138e-07 -0.000265563 
         -50      19.2189 -1.42825e-07  -2.0015e-07 -0.000265545 
         -50      19.3535 -1.42343e-07 -1.95528e-07 -0.000265526 
         -50      19.4886 -1.42673e-07 -1.91294e-07 -0.000265508 
         -50      19.6242 -1.43557e-07 -1.87462e-07 -0.000265489 
         -50      19.7602 -1.44633e-07 -1.84013e-07  -0.00026547 
         -50      19.8968 -1.45462e-07 -1.80899e-07 -0.000265451 
         -50      20.0337 -1.45552e-07  -1.7806e-07 -0.000265432 
         -50      20.1712 -1.44404e-07 -1.75409e-07 -0.000265412 
         -50      20.3091 -1.40555e-07 -1.72349e-07 -0.000265393 
         -50      20.4475 -1.33584e-07 -1.68335e-07 -0.000265375 
         -50      20.5864 -1.28419e-07 -1.65426e-07 -0.000265356 
         -50      20.7257 -1.25347e-07 -1.63326e-07 -0.000265336 
         -50      20.8655 -1.24819e-07 -1.61471e-07 -0.000265316 
         -50      21.0058 -1.27509e-07 -1.58957e-07 -0.000265296 
         -50      21.1465 -1.34369e-07 -1.54426e-07 -0.000265274 
         -50      21.2877 -1.45774e-07 -1.51052e-07 -0.000265252 
         -50      21.4294 -1.49192e-07 -1.49035e-07  -0.00026523 
         -50      21.5716 -1.49978e-07 -1.44861e-07 -0.000265208 
         -50      21.7142 -1.54019e-07  -1.4089e-07 -0.000265185 
         -50      21.8573  -1.6223e-07 -1.38105e-07 -0.000265161 
         -50      22.0008 -1.59671e-07 -1.37262e-07 -0.000265139 
         -50      22.1449 -1.35311e-07 -1.37208e-07 -0.000265119 
         -50      22.2893 -1.18531e-07 -1.35625e-07 -0.000265099 
         -50      22.4344 -1.08682e-07 -1.32943e-07 -0.000265078 
         -50      22.5797 -1.04843e-07 -1.29559e-07 -0.000265057 
         -50      22.7257 -1.05845e-07 -1.25806e-07 -0.000265035 
         -50      22.8721 -1.10409e-07 -1.21968e-07 -0.000265013 
         -50      23.0189 -1.17206e-07 -1.18268e-07  -0.00026499 
         -50      23.1663 -1.24965e-07 -1.14851e-07 -0.000264966 
         -50       23.314 -1.32508e-07 -1.11806e-07 -0.000264942 
         -50      23.4623  -1.3885e-07  -1.0915e-07 -0.000264918 
         -50       23.611 -1.43207e-07 -1.06845e-07 -0.000264893 
         -50      23.7602  -1.4507e-07 -1.04794e-07 -0.000264868 
         -50        23.91 -1.44204e-07 -1.02861e-07 -0.000264843 
         -50        24.06 -1.40681e-07  -1.0088e-07 -0.000264818 
         -50      24.2107 -1.34858e-07 -9.86683e-08 -0.000264792 
         -50      24.3617 -1.27387e-07  -9.6055e-08 -0.000264766 
         -50      24.5133 -1.19144e-07 -9.28938e-08  -0.00026474 
         -50      24.6653 -1.11228e-07 -8.91061e-08 -0.000264715 
         -50      24.8178 -1.04839e-07 -8.46925e-08 -0.000264689 
         -50      24.9708 -1.01238e-07 -7.97895e-08 -0.000264663 
         -50      25.1242 -1.01612e-07 -7.47031e-08 -0.000264638 
         -50      25.2781 -1.06954e-07 -6.99397e-08 -0.000264613 
         -50      25.4324 -1.17897e-07 -6.62849e-08 -0.000264589 
         -50      25.5873 -1.32865e-07 -6.43112e-08 -0.000264562 
         -50      25.7426 -1.32711e-07 -6.44358e-08 -0.000264536 
         -50      25.8984 -1.23694e-07 -6.53438e-08 -0.000264509 
         -50      26.0546 -1.11748e-07 -6.60245e-08 -0.000264483 
         -50      26.2114 -1.01049e-07  -6.5801e-08 -0.000264456 
         -50      26.3686 -9.38795e-08 -6.42964e-08  -0.00026443 
         -50      26.5262 -9.06595e-08 -6.14238e-08 -0.000264402 
         -50      26.6844 -9.03148e-08 -5.73736e-08 -0.000264375 
         -50      26.8429 -9.09572e-08 -5.26458e-08 -0.000264347 
         -50       27.002 -9.08656e-08 -4.80577e-08 -0.000264318 
         -50      27.1615 -8.98203e-08 -4.48197e-08 -0.000264289 
         -50      27.3216 -9.07967e-08 -4.45797e-08 -0.000264259 
         -50      27.4821 -1.02051e-07 -4.95318e-08 -0.000264231 
         -50       27.643 -1.00715e-07 -4.91491e-08 -0.000264202 
         -50      27.8044 -8.90042e-08 -4.43502e-08 -0.000264173 
         -50      27.9663 -8.23885e-08 -4.10057e-08 -0.000264144 
         -50      28.1287 -7.95843e-08 -3.87687e-08 -0.000264114 
         -50      28.2914  -7.9507e-08 -3.73505e-08 -0.000264085 
         -50      28.4548 -8.12365e-08 -3.65015e-08 -0.000264055 
         -50      28.6185 -8.40082e-08 -3.60177e-08 -0.000264025 
         -50      28.7828 -8.72086e-08 -3.57305e-08 -0.000263994 
         -50      28.9475 -9.03494e-08 -3.55072e-08 -0.000263964 
         -50      29.1126 -9.30619e-08 -3.52455e-08 -0.000263933 
         -50      29.2784 -9.50906e-08 -3.48703e-08 -0.000263902 
         -50      29.4444 -9.62677e-08 -3.43313e-08 -0.000263871 
         -50       29.611 -9.65128e-08 -3.35977e-08  -0.00026384 
         -50       29.778 -9.58145e-08 -3.26585e-08 -0.000263808 
         -50      29.9456 -9.42199e-08 -3.15145e-08 -0.000263776 
         -50      30.1137 -9.18262e-08 -3.01806e-08 -0.000263745 
         -50      30.2821 -8.87708e-08 -2.86811e-08 -0.000263712 
         -50      30.4511 -8.52107e-08 -2.70433e-08  -0.00026368 
         -50      30.6204 -8.13311e-08 -2.53033e-08 -0.000263647 
         -50      30.7903 -7.73136e-08 -2.34936e-08 -0.000263615 
         -50      30.9606 -7.33517e-08 -2.16522e-08 -0.000263582 
         -50      31.1315 -6.96177e-08 -1.98092e-08 -0.000263549 
         -50      31.3028 -6.62772e-08 -1.79955e-08 -0.000263515 
         -50      31.4745 -6.34718e-08 -1.62371e-08 -0.000263482 
         -50      31.6468 -6.13072e-08 -1.45499e-08 -0.000263448 
         -50      31.8194 -5.98627e-08 -1.29485e-08 -0.000263414 
         -50      31.9926 -5.91732e-08 -1.14353e-08  -0.00026338 
         -50      32.1662 -5.92351e-08 -1.00104e-08 -0.000263346 
         -50      32.3404 -5.99989e-08 -8.66219e-09 -0.000263312 
         -50      32.5149  -6.1368e-08 -7.37728e-09 -0.000263278 
         -50        32.69 -6.32026e-08 -6.13263e-09 -0.000263243 
         -50      32.8655 -6.53146e-08 -4.90429e-09 -0.000263208 
         -50      33.0414 -6.74712e-08 -3.66616e-09 -0.000263174 
         -50       33.218 -6.94051e-08 -2.38929e-09 -0.000263139 
         -50      33.3948 -7.08077e-08 -1.05162e-09 -0.000263104 
         -50      33.5723 -7.13462e-08  3.66972e-10 -0.000263069 
         -50        33.75 -7.06637e-08  1.87232e-09 -0.000263034 
         -50      33.9284 -6.83908e-08  3.46079e-09 -0.000262999 
         -50      34.1073 -6.41581e-08  5.10612e-09 -0.000262964 
         -50      34.2865 -5.76139e-08  6.75734e-09 -0.000262929 
         -50      34.4663 -4.84166e-08  8.33691e-09 -0.000262894 
         -50      34.6465 -3.62924e-08  9.72494e-09 -0.000262859 
         -50      34.8272  -2.0995e-08  1.07614e-08 -0.000262824 
         -50      35.0083 -2.03883e-08   1.2209e-08 -0.000262787 
         -50        35.19 -3.60258e-08  1.42117e-08 -0.000262748 
         -50      35.3721 -5.84264e-08  1.67298e-08 -0.000262708 
         -50      35.5546 -8.26479e-08  1.87493e-08 -0.000262668 
         -50      35.7377 -7.17672e-08  1.37897e-08 -0.000262631 
         -50      35.9211 -6.31457e-08  1.09345e-08 -0.000262594 
         -50      36.1052 -5.64259e-08  9.90224e-09 -0.000262556 
         -50      36.2895 -5.13137e-08  1.04564e-08 -0.000262517 
         -50      36.4745 -4.75313e-08  1.23955e-08 -0.000262478 
         -50      36.6598 -4.48476e-08  1.55478e-08 -0.000262439 
         -50      36.8457 -4.31373e-08  1.95852e-08 -0.000262399 
         -50      37.0321 -4.32486e-08  2.06833e-08 -0.000262361 
         -50      37.2188 -4.32935e-08  2.17174e-08 -0.000262322 
         -50      37.4062 -4.32743e-08   2.2742e-08 -0.000262284 
         -50      37.5938 -4.31994e-08    2.378e-08 -0.000262246 
         -50      37.7821 -4.30814e-08  2.48353e-08 -0.000262207 
         -50      37.9707 -4.29367e-08  2.58912e-08 -0.000262168 
         -50      38.1599 -4.27831e-08   2.6922e-08 -0.000262129 
         -50      38.3496 -4.26395e-08  2.78919e-08  -0.00026209 
         -50      38.5396 -4.25243e-08  2.87622e-08 -0.000262051 
         -50      38.7302 -4.24539e-08  2.94965e-08 -0.000262011 
         -50      38.9211 -4.24429e-08  3.00599e-08 -0.000261972 
         -50      39.1127 -4.25022e-08  3.04264e-08 -0.000261932 
         -50      39.3046 -4.26388e-08   3.0578e-08 -0.000261892 
         -50      39.4971 -4.28552e-08  3.05085e-08 -0.000261852 
         -50      39.6899 -4.31483e-08  3.02244e-08 -0.000261811 
         -50      39.8833 -4.35104e-08  2.97453e-08 -0.000261771 
         -50      40.0772 -4.39274e-08  2.91048e-08  -0.00026173 
         -50      40.2714 -4.43791e-08  2.83505e-08 -0.000261689 
         -50      40.4663 -4.48411e-08    2.754e-08 -0.000261648 
         -50      40.6615 -4.52819e-08  2.67439e-08 -0.000261606 
         -50      40.8573 -4.56666e-08  2.60379e-08 -0.000261565 
         -50      41.0534 -4.59546e-08  2.55044e-08 -0.000261523 
         -50      41.2501 -4.61029e-08  2.52243e-08 -0.000261481 
         -50      41.4473 -4.60651e-08  2.52749e-08 -0.000261439 
         -50      41.6448 -4.57941e-08  2.57219e-08 -0.000261396 
         -50      41.8429 -4.52423e-08  2.66148e-08 -0.000261354 
         -50      42.0414 -4.43649e-08  2.79754e-08 -0.000261312 
         -50      42.2405 -4.31188e-08  2.97951e-08 -0.000261269 
         -50      42.4399 -4.14697e-08  3.20165e-08 -0.000261226 
         -50      42.6399 -3.93872e-08  3.45335e-08 -0.000261183 
         -50      42.8404 -3.68552e-08  3.71676e-08  -0.00026114 
         -50      43.0412 -3.38727e-08  3.96599e-08 -0.000261098 
         -50      43.2426 -3.04486e-08  4.16628e-08 -0.000261055 
         -50      43.4444 -2.66222e-08  4.27115e-08 -0.000261012 
         -50      43.6467 -2.24458e-08  4.22178e-08 -0.000260969 
         -50      43.8494 -1.80125e-08  3.94476e-08 -0.000260926 
         -50      44.0527 -1.34347e-08  3.34949e-08 -0.000260883 
         -50      44.2563 -9.31049e-09  2.37819e-08 -0.000260841 
         -50      44.4606 -2.21639e-08  3.21536e-08 -0.000260795 
         -50      44.6653 -3.10833e-08  3.81852e-08  -0.00026075 
         -50      44.8704 -3.62846e-08    4.225e-08 -0.000260705 
         -50       45.076 -3.80515e-08  4.46848e-08  -0.00026066 
         -50       45.282 -3.67402e-08   4.5774e-08 -0.000260616 
         -50      45.4886 -3.28206e-08  4.57713e-08 -0.000260572 
         -50      45.6955 -2.69117e-08  4.48952e-08 -0.000260528 
         -50       45.903 -1.97893e-08  4.33344e-08 -0.000260484 
         -50      46.1111 -1.24468e-08  4.12554e-08  -0.00026044 
         -50      46.3194 -6.11311e-09  3.88061e-08 -0.000260396 
         -50      46.5283 -2.27104e-09  3.61128e-08 -0.000260351 
         -50      46.7376 -2.72086e-09  3.32985e-08 -0.000260306 
         -50      46.9475 -9.59813e-09  3.04707e-08 -0.000260261 
         -50      47.1577 -2.53994e-08  2.77434e-08 -0.000260215 
         -50      47.3685 -3.48796e-08  2.62622e-08 -0.000260169 
         -50      47.5798 -2.01899e-08  2.70901e-08 -0.000260125 
         -50      47.7914 -8.53376e-09  2.84431e-08 -0.000260081 
         -50      48.0037  3.82483e-10  3.01383e-08 -0.000260037 