Variables = x, y, u, v, p

Zone, I=6400, F=POINT
         -50            0            0            0      -38.816 
         -50     0.000471 -7.68031e-06 -1.51231e-09      -38.816 
         -50     0.001884 -2.68577e-05 -5.69006e-09      -38.816 
         -50     0.004239 -4.80704e-05 -1.16825e-08      -38.816 
         -50     0.007537 -6.15391e-05 -1.87176e-08      -38.816 
         -50     0.011776 -6.27321e-05 -2.67115e-08      -38.816 
         -50     0.016958 -5.49401e-05 -3.66043e-08      -38.816 
         -50     0.023081 -4.67571e-05 -5.01407e-08      -38.816 
         -50      0.03015 -4.53614e-05  -6.9216e-08      -38.816 
         -50     0.038157 -4.99809e-05 -9.50728e-08      -38.816 
         -50     0.047107 -5.20665e-05 -1.28182e-07      -38.816 
         -50     0.056999 -4.61469e-05 -1.69007e-07      -38.816 
         -50     0.067837 -4.31224e-05 -2.19217e-07      -38.816 
         -50     0.079614 -4.92999e-05 -2.79902e-07      -38.816 
         -50     0.092332   -4.334e-05 -3.50095e-07      -38.816 
         -50     0.105992 -4.33209e-05 -4.32311e-07      -38.816 
         -50       0.1206 -4.16907e-05 -5.27558e-07      -38.816 
         -50     0.136145  -4.0146e-05 -6.37187e-07      -38.816 
         -50     0.152631 -3.91156e-05 -7.62205e-07      -38.816 
         -50     0.170067 -3.81834e-05 -9.03662e-07      -38.816 
         -50     0.188438  -3.6856e-05 -1.06268e-06      -38.816 
         -50     0.207751  -3.5296e-05 -1.24028e-06      -38.816 
         -50     0.228006 -3.42629e-05 -1.43459e-06      -38.816 
         -50     0.249212 -3.29424e-05 -1.63466e-06      -38.816 
         -50     0.271351  -3.1863e-05 -1.83454e-06      -38.816 
         -50     0.294433 -3.07964e-05 -2.02808e-06      -38.816 
         -50     0.318456   -2.974e-05 -2.18536e-06      -38.816 
         -50     0.343432 -2.87489e-05 -2.29337e-06      -38.816 
         -50     0.369339  -2.7853e-05  -2.3562e-06     -38.8159 
         -50     0.396189 -2.70606e-05 -2.39328e-06     -38.8159 
         -50     0.423981 -2.63696e-05 -2.43501e-06     -38.8159 
         -50     0.452726 -2.57786e-05 -2.51646e-06     -38.8159 
         -50     0.482403 -2.52981e-05 -2.66931e-06     -38.8159 
         -50     0.513021 -2.49548e-05 -2.91302e-06     -38.8159 
         -50     0.544594 -2.47879e-05 -3.24639e-06     -38.8158 
         -50     0.577096 -2.48249e-05 -3.64079e-06     -38.8158 
         -50     0.610541 -2.50296e-05 -4.04023e-06     -38.8158 
         -50     0.644927  -2.5435e-05 -4.42219e-06     -38.8158 
         -50      0.68027 -2.60783e-05  -4.7822e-06     -38.8157 
         -50     0.716541 -2.69218e-05  -5.1121e-06     -38.8157 
         -50     0.753754 -2.79269e-05 -5.41054e-06     -38.8157 
         -50     0.791909 -2.90541e-05 -5.68176e-06     -38.8156 
         -50     0.831022 -3.02651e-05 -5.93467e-06     -38.8156 
         -50     0.871061 -3.15218e-05 -6.18097e-06     -38.8155 
         -50     0.912043 -3.27907e-05 -6.43391e-06     -38.8155 
         -50     0.953966 -3.40418e-05 -6.70586e-06     -38.8155 
         -50     0.996849 -3.52511e-05 -7.00635e-06     -38.8154 
         -50      1.04066  -3.6399e-05 -7.33958e-06     -38.8153 
         -50      1.08541 -3.74747e-05 -7.70351e-06     -38.8153 
         -50      1.13112 -3.84742e-05 -8.08853e-06     -38.8152 
         -50      1.17775 -3.93999e-05 -8.47715e-06     -38.8152 
         -50      1.22533 -4.02616e-05 -8.84666e-06     -38.8151 
         -50      1.27384 -4.10738e-05  -9.1725e-06      -38.815 
         -50      1.32333 -4.18542e-05  -9.4354e-06     -38.8149 
         -50      1.37373 -4.26185e-05 -9.63167e-06     -38.8148 
         -50      1.42507 -4.33778e-05  -9.7893e-06     -38.8147 
         -50      1.47736 -4.41307e-05 -9.98886e-06     -38.8147 
         -50      1.53061 -4.51737e-05 -1.02023e-05     -38.8145 
         -50      1.58478 -4.61865e-05 -1.03188e-05     -38.8144 
         -50      1.63989 -4.67939e-05 -1.04793e-05     -38.8143 
         -50      1.69595  -4.7155e-05 -1.06636e-05     -38.8142 
         -50      1.75297 -4.74028e-05 -1.08542e-05     -38.8141 
         -50      1.81091 -4.76435e-05  -1.1036e-05      -38.814 
         -50      1.86979 -4.79569e-05 -1.11972e-05     -38.8138 
         -50      1.92964 -4.83969e-05 -1.13285e-05     -38.8137 
         -50       1.9904 -4.89924e-05 -1.14233e-05     -38.8135 
         -50      2.05211 -4.97498e-05 -1.14776e-05     -38.8134 
         -50      2.11476 -5.06556e-05 -1.14898e-05     -38.8132 
         -50      2.17838 -5.16793e-05 -1.14605e-05      -38.813 
         -50      2.24291 -5.27762e-05 -1.13921e-05     -38.8129 
         -50      2.30839 -5.38935e-05 -1.12884e-05     -38.8127 
         -50       2.3748 -5.49732e-05 -1.11543e-05     -38.8125 
         -50      2.44219 -5.59577e-05 -1.09956e-05     -38.8123 
         -50      2.51049 -5.67927e-05 -1.08184e-05     -38.8121 
         -50      2.57974 -5.74347e-05 -1.06284e-05     -38.8118 
         -50      2.64993  -5.7853e-05 -1.04312e-05     -38.8116 
         -50      2.72108 -5.80345e-05 -1.02312e-05     -38.8114 
         -50      2.79315 -5.79855e-05 -1.00324e-05     -38.8111 
         -50      2.86617  -5.7734e-05 -9.83705e-06     -38.8109 
         -50      2.94012 -5.73291e-05 -9.64676e-06     -38.8106 
         -50      3.01505 -5.68384e-05 -9.46212e-06     -38.8103 
         -50      3.09089 -5.63436e-05 -9.28368e-06       -38.81 
         -50      3.16767 -5.59316e-05 -9.11228e-06     -38.8097 
         -50      3.24542 -5.56822e-05 -8.95052e-06     -38.8094 
         -50      3.32409 -5.56524e-05 -8.80456e-06     -38.8091 
         -50       3.4037 -5.58529e-05 -8.68585e-06     -38.8087 
         -50      3.48425 -5.62205e-05 -8.61419e-06     -38.8084 
         -50      3.56577  -5.6582e-05 -8.62112e-06      -38.808 
         -50       3.6482 -5.66101e-05 -8.75415e-06     -38.8077 
         -50      3.73158 -5.57703e-05 -9.08194e-06     -38.8073 
         -50       3.8159 -5.53004e-05 -8.42327e-06     -38.8069 
         -50      3.90119 -5.50591e-05 -8.64157e-06     -38.8065 
         -50       3.9874 -5.49637e-05 -8.54376e-06      -38.806 
         -50      4.07454 -5.48508e-05 -8.33873e-06     -38.8056 
         -50      4.16263 -5.46967e-05 -8.24118e-06     -38.8052 
         -50      4.25169 -5.45234e-05 -8.24396e-06     -38.8047 
         -50      4.34166 -5.43376e-05 -8.32365e-06     -38.8042 
         -50      4.43258 -5.41357e-05 -8.44797e-06     -38.8037 
         -50      4.52447   -5.391e-05 -8.58271e-06     -38.8032 
         -50      4.61726 -5.36539e-05 -8.69743e-06     -38.8027 
         -50        4.711 -5.33655e-05 -8.77056e-06     -38.8021 
         -50      4.80569 -5.30509e-05 -8.79218e-06     -38.8016 
         -50      4.90135 -5.27253e-05 -8.76513e-06      -38.801 
         -50      4.99791 -5.24135e-05  -8.7034e-06     -38.8004 
         -50      5.09542 -5.21459e-05 -8.62734e-06     -38.7998 
         -50      5.19387 -5.19542e-05  -8.5552e-06     -38.7991 
         -50       5.2933 -5.18618e-05 -8.49023e-06     -38.7985 
         -50      5.39364 -5.18719e-05 -8.40275e-06     -38.7978 
         -50      5.49491 -5.19501e-05 -8.20607e-06     -38.7971 
         -50      5.59713 -5.20026e-05 -7.72599e-06     -38.7964 
         -50      5.70033  -5.1771e-05 -7.55708e-06     -38.7957 
         -50      5.80443 -5.12937e-05 -7.57215e-06      -38.795 
         -50      5.90948 -5.08534e-05  -7.3528e-06     -38.7942 
         -50      6.01551 -5.05684e-05 -7.13503e-06     -38.7934 
         -50      6.12244 -5.04743e-05 -7.02952e-06     -38.7926 
         -50      6.23031 -5.05364e-05 -7.04508e-06     -38.7918 
         -50      6.33912  -5.0667e-05 -7.12938e-06      -38.791 
         -50      6.44892 -5.07445e-05 -7.22802e-06     -38.7901 
         -50      6.55962 -5.06345e-05 -7.36512e-06     -38.7892 
         -50      6.67126 -5.02155e-05 -7.74876e-06     -38.7883 
         -50      6.78384 -4.99982e-05  -7.8777e-06     -38.7874 
         -50      6.89741 -5.02396e-05 -7.43031e-06     -38.7864 
         -50      7.01187 -5.02847e-05 -7.36043e-06     -38.7854 
         -50      7.12728 -5.02096e-05 -7.46584e-06     -38.7844 
         -50      7.24363 -5.00649e-05 -7.61893e-06     -38.7834 
         -50      7.36097 -4.98806e-05 -7.75354e-06     -38.7823 
         -50       7.4792 -4.96735e-05 -7.85012e-06     -38.7813 
         -50      7.59838 -4.94554e-05  -7.9196e-06     -38.7802 
         -50      7.71854 -4.92438e-05 -7.98484e-06      -38.779 
         -50       7.8396 -4.90753e-05 -8.06033e-06     -38.7779 
         -50      7.96161 -4.90202e-05 -8.13006e-06     -38.7767 
         -50      8.08455 -4.90888e-05 -8.17345e-06     -38.7755 
         -50      8.20849 -4.89559e-05  -8.1538e-06     -38.7743 
         -50      8.33332 -4.89731e-05 -7.96862e-06      -38.773 
         -50      8.45909 -4.90545e-05 -7.81357e-06     -38.7717 
         -50       8.5858 -4.91386e-05 -7.79559e-06     -38.7704 
         -50      8.71351 -4.91897e-05 -7.93603e-06     -38.7691 
         -50       8.8421 -4.91967e-05 -8.18241e-06     -38.7677 
         -50      8.97164 -4.91664e-05  -8.4311e-06     -38.7663 
         -50      9.10212 -4.91122e-05 -8.56143e-06     -38.7649 
         -50       9.2336 -4.90376e-05 -8.48313e-06     -38.7634 
         -50      9.36596 -4.88715e-05 -8.24009e-06     -38.7619 
         -50      9.49927 -4.84117e-05 -8.34986e-06     -38.7604 
         -50      9.63352 -4.80605e-05 -8.55088e-06     -38.7588 
         -50      9.76877 -4.78201e-05 -8.76083e-06     -38.7573 
         -50       9.9049 -4.76877e-05 -8.93491e-06     -38.7556 
         -50       10.042 -4.76547e-05 -9.05759e-06      -38.754 
         -50      10.1801  -4.7708e-05 -9.13378e-06     -38.7523 
         -50       10.319   -4.783e-05 -9.18098e-06     -38.7506 
         -50      10.4589 -4.79994e-05 -9.22222e-06     -38.7489 
         -50      10.5998  -4.8192e-05 -9.27964e-06     -38.7471 
         -50      10.7416 -4.83819e-05 -9.36942e-06     -38.7453 
         -50      10.8843 -4.85422e-05 -9.49773e-06     -38.7434 
         -50       11.028 -4.86473e-05 -9.65861e-06     -38.7416 
         -50      11.1726 -4.86746e-05 -9.83341e-06     -38.7397 
         -50      11.3182 -4.86059e-05 -9.99239e-06     -38.7377 
         -50      11.4647 -4.84308e-05 -1.00984e-05     -38.7357 
         -50      11.6122 -4.81488e-05 -1.01141e-05     -38.7337 
         -50      11.7605  -4.7773e-05 -1.00109e-05     -38.7317 
         -50      11.9099 -4.73332e-05  -9.7822e-06     -38.7296 
         -50      12.0602 -4.68806e-05 -9.46035e-06     -38.7275 
         -50      12.2114 -4.64917e-05 -9.13687e-06     -38.7253 
         -50      12.3636 -4.62736e-05   -8.988e-06     -38.7231 
         -50      12.5167 -4.63698e-05 -9.30509e-06     -38.7209 
         -50      12.6707 -4.67966e-05 -1.03002e-05     -38.7186 
         -50      12.8257 -4.74339e-05 -1.08534e-05     -38.7163 
         -50      12.9817  -4.8183e-05 -1.01717e-05     -38.7139 
         -50      13.1386 -4.79329e-05 -9.41695e-06     -38.7115 
         -50      13.2964 -4.75943e-05 -9.29502e-06     -38.7091 
         -50      13.4551 -4.72418e-05 -9.51194e-06     -38.7067 
         -50      13.6149 -4.69237e-05 -9.86069e-06     -38.7042 
         -50      13.7755 -4.66675e-05 -1.02069e-05     -38.7016 
         -50      13.9371  -4.6483e-05 -1.04765e-05      -38.699 
         -50      14.0996 -4.63673e-05 -1.06416e-05     -38.6964 
         -50      14.2631  -4.6308e-05  -1.0709e-05     -38.6937 
         -50      14.4275 -4.62874e-05 -1.07075e-05      -38.691 
         -50      14.5928 -4.62855e-05  -1.0678e-05     -38.6883 
         -50      14.7592 -4.62829e-05 -1.06635e-05     -38.6855 
         -50      14.9264 -4.62636e-05  -1.0701e-05     -38.6827 
         -50      15.0946 -4.62169e-05 -1.08149e-05     -38.6798 
         -50      15.2637 -4.61383e-05  -1.1012e-05     -38.6769 
         -50      15.4338 -4.60308e-05 -1.12795e-05     -38.6739 
         -50      15.6048 -4.59047e-05 -1.15841e-05     -38.6709 
         -50      15.7767 -4.57761e-05 -1.18752e-05     -38.6679 
         -50      15.9496 -4.56656e-05 -1.20897e-05     -38.6648 
         -50      16.1235 -4.55948e-05 -1.21614e-05     -38.6617 
         -50      16.2982 -4.55824e-05 -1.20334e-05     -38.6585 
         -50      16.4739 -4.56387e-05 -1.16746e-05     -38.6553 
         -50      16.6506 -4.57581e-05 -1.11007e-05      -38.652 
         -50      16.8282 -4.51788e-05 -1.12147e-05     -38.6487 
         -50      17.0068 -4.45816e-05 -1.12822e-05     -38.6453 
         -50      17.1862 -4.41707e-05 -1.11596e-05      -38.642 
         -50      17.3667 -4.39024e-05 -1.09606e-05     -38.6385 
         -50      17.5481 -4.37442e-05  -1.0761e-05      -38.635 
         -50      17.7304 -4.36718e-05  -1.0605e-05     -38.6315 
         -50      17.9136 -4.36665e-05 -1.05129e-05     -38.6279 
         -50      18.0979 -4.37129e-05 -1.04874e-05     -38.6243 
         -50       18.283  -4.3797e-05   -1.052e-05     -38.6206 
         -50      18.4691 -4.39048e-05 -1.05969e-05     -38.6169 
         -50      18.6561 -4.40217e-05 -1.07041e-05     -38.6132 
         -50      18.8441 -4.41321e-05 -1.08325e-05     -38.6094 
         -50       19.033 -4.42196e-05 -1.09811e-05     -38.6055 
         -50      19.2228 -4.42691e-05 -1.11605e-05     -38.6016 
         -50      19.4136 -4.42679e-05  -1.1395e-05     -38.5977 
         -50      19.6054 -4.42094e-05 -1.17237e-05     -38.5937 
         -50       19.798 -4.40969e-05 -1.21998e-05     -38.5896 
         -50      19.9917 -4.39488e-05 -1.28897e-05     -38.5856 
         -50      20.1862 -4.38047e-05 -1.38698e-05     -38.5814 
         -50      20.3818 -4.38769e-05 -1.44044e-05     -38.5772 
         -50      20.5782 -4.40542e-05 -1.41437e-05      -38.573 
         -50      20.7756 -4.41153e-05 -1.36575e-05     -38.5688 
         -50       20.974 -4.39135e-05 -1.29525e-05     -38.5644 
         -50      21.1732 -4.31909e-05  -1.2053e-05     -38.5601 
         -50      21.3734 -4.36828e-05 -1.38427e-05     -38.5557 
         -50      21.5745 -4.35631e-05 -1.52568e-05     -38.5512 
         -50      21.7767 -4.23483e-05 -1.51936e-05     -38.5467 
         -50      21.9797 -4.05918e-05 -1.39992e-05     -38.5421 
         -50      22.1837 -4.11058e-05 -1.36972e-05     -38.5375 
         -50      22.3886 -4.15986e-05 -1.37144e-05     -38.5329 
         -50      22.5945 -4.20076e-05 -1.39355e-05     -38.5282 
         -50      22.8013 -4.22678e-05  -1.4268e-05     -38.5234 
         -50      23.0091 -4.23301e-05 -1.46408e-05     -38.5186 
         -50      23.2177 -4.21738e-05 -1.50022e-05     -38.5138 
         -50      23.4274 -4.18143e-05 -1.53177e-05     -38.5089 
         -50       23.638 -4.13057e-05 -1.55675e-05     -38.5039 
         -50      23.8495 -4.07353e-05 -1.57444e-05      -38.499 
         -50       24.062 -4.02134e-05 -1.58511e-05     -38.4939 
         -50      24.2754 -3.98543e-05 -1.58971e-05     -38.4888 
         -50      24.4897 -3.97484e-05 -1.58961e-05     -38.4837 
         -50       24.705 -3.99273e-05 -1.58624e-05     -38.4785 
         -50      24.9213 -4.03176e-05 -1.58078e-05     -38.4733 
         -50      25.1385 -4.06847e-05 -1.57381e-05      -38.468 
         -50      25.3566 -4.05665e-05 -1.56489e-05     -38.4627 
         -50      25.5756 -3.95741e-05 -1.63846e-05     -38.4574 
         -50      25.7957  -3.9179e-05 -1.70198e-05      -38.452 
         -50      26.0166 -3.93145e-05 -1.70969e-05     -38.4465 
         -50      26.2385 -3.96516e-05 -1.68727e-05      -38.441 
         -50      26.4613 -3.99426e-05 -1.65573e-05     -38.4354 
         -50      26.6851 -4.00412e-05 -1.63333e-05     -38.4298 
         -50      26.9098  -3.9919e-05 -1.63383e-05     -38.4242 
         -50      27.1354 -3.96773e-05  -1.6608e-05     -38.4185 
         -50      27.3621 -3.95543e-05 -1.69785e-05     -38.4128 
         -50      27.5896  -3.9728e-05  -1.7076e-05      -38.407 
         -50      27.8181 -3.94943e-05 -1.72748e-05     -38.4012 
         -50      28.0475 -3.92712e-05 -1.74305e-05     -38.3953 
         -50      28.2779 -3.90517e-05 -1.75563e-05     -38.3894 
         -50      28.5092  -3.8832e-05 -1.76614e-05     -38.3834 
         -50      28.7414 -3.86104e-05 -1.77523e-05     -38.3774 
         -50      28.9746 -3.83871e-05 -1.78329e-05     -38.3713 
         -50      29.2088 -3.81636e-05 -1.79051e-05     -38.3652 
         -50      29.4439 -3.79426e-05 -1.79694e-05     -38.3591 
         -50      29.6799 -3.77273e-05 -1.80253e-05     -38.3529 
         -50      29.9168 -3.75212e-05  -1.8072e-05     -38.3467 
         -50      30.1548 -3.73275e-05 -1.81083e-05     -38.3404 
         -50      30.3936 -3.71492e-05 -1.81334e-05     -38.3341 
         -50      30.6334 -3.69885e-05 -1.81468e-05     -38.3277 
         -50      30.8742 -3.68466e-05 -1.81489e-05     -38.3213 
         -50      31.1158 -3.67238e-05 -1.81411e-05     -38.3149 
         -50      31.3584 -3.66191e-05 -1.81256e-05     -38.3084 
         -50       31.602 -3.65301e-05 -1.81057e-05     -38.3018 
         -50      31.8465 -3.64532e-05 -1.80857e-05     -38.2953 
         -50      32.0919 -3.63837e-05 -1.80708e-05     -38.2886 
         -50      32.3383 -3.63155e-05 -1.80665e-05      -38.282 
         -50      32.5856 -3.62418e-05 -1.80787e-05     -38.2753 
         -50       32.834 -3.61551e-05 -1.81129e-05     -38.2685 
         -50      33.0831 -3.60479e-05 -1.81738e-05     -38.2618 
         -50      33.3333 -3.59127e-05 -1.82646e-05     -38.2549 
         -50      33.5843  -3.5743e-05 -1.83858e-05     -38.2481 
         -50      33.8364 -3.55336e-05 -1.85347e-05     -38.2412 
         -50      34.0894 -3.52822e-05 -1.87037e-05     -38.2342 
         -50      34.3433 -3.49892e-05 -1.88794e-05     -38.2273 
         -50      34.5981 -3.46597e-05 -1.90411e-05     -38.2202 
         -50       34.854  -3.4304e-05 -1.91587e-05     -38.2132 
         -50      35.1107 -3.43954e-05  -1.9036e-05     -38.2061 
         -50      35.3684 -3.45138e-05  -1.8911e-05      -38.199 
         -50      35.6271 -3.45293e-05 -1.89245e-05     -38.1918 
         -50      35.8867 -3.46207e-05 -1.89965e-05     -38.1846 
         -50      36.1472 -3.47825e-05 -1.89873e-05     -38.1773 
         -50      36.4086 -3.49642e-05   -1.893e-05     -38.1701 
         -50      36.6711 -3.51254e-05 -1.88556e-05     -38.1628 
         -50      36.9344 -3.49639e-05 -1.87095e-05     -38.1554 
         -50      37.1987 -3.43798e-05 -1.85111e-05      -38.148 
         -50      37.4639 -3.38689e-05 -1.84049e-05     -38.1406 
         -50      37.7301 -3.34329e-05 -1.83686e-05     -38.1332 
         -50      37.9972 -3.30704e-05  -1.8384e-05     -38.1257 
         -50      38.2652 -3.27771e-05  -1.8436e-05     -38.1182 
         -50      38.5342 -3.25463e-05 -1.85129e-05     -38.1106 
         -50      38.8042 -3.23695e-05 -1.86053e-05      -38.103 
         -50      39.0751 -3.22368e-05 -1.87057e-05     -38.0954 
         -50      39.3469 -3.21372e-05 -1.88087e-05     -38.0878 
         -50      39.6197 -3.20592e-05 -1.89098e-05     -38.0801 
         -50      39.8934 -3.19912e-05 -1.90056e-05     -38.0724 
         -50       40.168 -3.19219e-05 -1.90935e-05     -38.0646 
         -50      40.4436 -3.18411e-05 -1.91712e-05     -38.0569 
         -50      40.7202 -3.17397e-05 -1.92367e-05     -38.0491 
         -50      40.9977 -3.16107e-05  -1.9288e-05     -38.0412 
         -50      41.2761 -3.14492e-05 -1.93235e-05     -38.0334 
         -50      41.5554 -3.12533e-05 -1.93413e-05     -38.0255 
         -50      41.8358 -3.10243e-05 -1.93398e-05     -38.0176 
         -50       42.117 -3.07677e-05 -1.93176e-05     -38.0097 
         -50      42.3992 -3.04928e-05 -1.92739e-05     -38.0017 
         -50      42.6823 -3.02142e-05 -1.92086e-05     -37.9937 
         -50      42.9664 -2.99515e-05 -1.91228e-05     -37.9857 
         -50      43.2514 -2.97304e-05 -1.90194e-05     -37.9776 
         -50      43.5373 -2.95829e-05 -1.89034e-05     -37.9696 
         -50      43.8243 -2.95475e-05 -1.87829e-05     -37.9615 
         -50      44.1121 -2.96705e-05 -1.86701e-05     -37.9534 
         -50      44.4009 -2.96635e-05 -1.87251e-05     -37.9452 
         -50      44.6906 -2.94452e-05 -1.88995e-05     -37.9371 
         -50      44.9813 -2.92829e-05 -1.90426e-05     -37.9289 
         -50      45.2729 -2.91627e-05 -1.91579e-05     -37.9207 
         -50      45.5654 -2.90687e-05 -1.92509e-05     -37.9124 
         -50      45.8589 -2.89818e-05 -1.93256e-05     -37.9042 
         -50      46.1534 -2.88792e-05 -1.93811e-05     -37.8959 
         -50      46.4488 -2.87329e-05 -1.94078e-05     -37.8876 
         -50      46.7451 -2.85097e-05 -1.93838e-05     -37.8793 
         -50      47.0423   -2.817e-05   -1.927e-05      -37.871 
         -50      47.3406 -2.77859e-05 -1.90942e-05     -37.8626 
         -50      47.6397 -2.78571e-05 -1.92313e-05     -37.8543 
         -50      47.9398 -2.78643e-05 -1.93153e-05     -37.8459 
         -50      48.2409 -2.78202e-05 -1.93562e-05     -37.8375 
         -50      48.5428 -2.77359e-05 -1.93635e-05     -37.8291 
         -50      48.8457 -2.76209e-05 -1.93456e-05     -37.8206 
         -50      49.1496 -2.74834e-05 -1.93098e-05     -37.8122 
         -50      49.4545 -2.73304e-05 -1.92622e-05     -37.8037 
         -50      49.7602 -2.71681e-05 -1.92079e-05     -37.7952 
         -50      50.0668 -2.70016e-05 -1.91504e-05     -37.7867 
         -50      50.3744 -2.68354e-05 -1.90924e-05     -37.7782 
         -50      50.6831 -2.66729e-05 -1.90351e-05     -37.7697 
         -50      50.9926 -2.65173e-05  -1.8979e-05     -37.7612 
         -50       51.303 -2.63707e-05 -1.89238e-05     -37.7526 
         -50      51.6144 -2.62348e-05 -1.88687e-05     -37.7441 
         -50      51.9268   -2.611e-05 -1.88125e-05     -37.7355 
         -50        52.24 -2.59965e-05 -1.87545e-05     -37.7269 
         -50      52.5542  -2.5893e-05 -1.86945e-05     -37.7183 
         -50      52.8694 -2.57971e-05 -1.86335e-05     -37.7097 
         -50      53.1856 -2.57049e-05 -1.85744e-05     -37.7011 
         -50      53.5026  -2.5611e-05 -1.85226e-05     -37.6925 
         -50      53.8205 -2.55076e-05 -1.84866e-05     -37.6839 
         -50      54.1396 -2.53848e-05 -1.84791e-05     -37.6752 
         -50      54.4594 -2.52296e-05 -1.85181e-05     -37.6666 
         -50      54.7802 -2.50259e-05 -1.86276e-05     -37.6579 
         -50      55.1019 -2.48796e-05 -1.85833e-05     -37.6493 
         -50      55.4247 -2.47534e-05 -1.84892e-05     -37.6406 
         -50      55.7483 -2.46263e-05  -1.8391e-05      -37.632 
         -50      56.0729 -2.44951e-05 -1.82976e-05     -37.6233 
         -50      56.3984  -2.4358e-05 -1.82154e-05     -37.6146 
         -50       56.725 -2.42148e-05 -1.81484e-05     -37.6059 
         -50      57.0523 -2.40665e-05 -1.80984e-05     -37.5972 
         -50      57.3807 -2.39149e-05 -1.80655e-05     -37.5886 
         -50      57.7099 -2.37625e-05 -1.80482e-05     -37.5799 
         -50      58.0403  -2.3612e-05 -1.80435e-05     -37.5712 
         -50      58.3714 -2.34664e-05 -1.80476e-05     -37.5625 
         -50      58.7035 -2.33283e-05 -1.80559e-05     -37.5538 
         -50      59.0367 -2.32002e-05 -1.80635e-05     -37.5451 
         -50      59.3707 -2.30838e-05 -1.80653e-05     -37.5364 
         -50      59.7056 -2.29802e-05 -1.80564e-05     -37.5277 
         -50      60.0414 -2.28893e-05 -1.80326e-05      -37.519 
         -50      60.3784   -2.281e-05 -1.79905e-05     -37.5103 
         -50      60.7161 -2.27397e-05 -1.79282e-05     -37.5016 
         -50      61.0548 -2.26745e-05 -1.78451e-05     -37.4929 
         -50      61.3944 -2.26089e-05 -1.77431e-05     -37.4843 
         -50      61.7351 -2.25354e-05  -1.7626e-05     -37.4756 
         -50      62.0767 -2.24452e-05 -1.75011e-05     -37.4669 
         -50      62.4191 -2.23272e-05 -1.73783e-05     -37.4582 
         -50      62.7625 -2.21687e-05 -1.72717e-05     -37.4496 
         -50       63.107  -2.1955e-05  -1.7199e-05     -37.4409 
         -50      63.4523 -2.16697e-05 -1.71829e-05     -37.4322 
         -50      63.7985 -2.12944e-05  -1.7251e-05     -37.4236 
         -50      64.1458 -2.13371e-05 -1.71486e-05     -37.4149 
         -50      64.4939 -2.13806e-05 -1.69904e-05     -37.4063 
         -50       64.843 -2.13978e-05 -1.67904e-05     -37.3977 
         -50      65.1929 -2.13797e-05 -1.65641e-05      -37.389 
         -50       65.544 -2.13318e-05 -1.63332e-05     -37.3804 
         -50      65.8959 -2.12766e-05 -1.61293e-05     -37.3718 
         -50      66.2487 -2.12549e-05 -1.59969e-05     -37.3632 
         -50      66.6025   -2.132e-05 -1.59985e-05     -37.3546 
         -50      66.9573 -2.11088e-05 -1.61112e-05     -37.3461 
         -50       67.313 -2.09455e-05 -1.61951e-05     -37.3375 
         -50      67.6695 -2.08044e-05 -1.62358e-05     -37.3289 
         -50      68.0271 -2.06642e-05 -1.62223e-05     -37.3204 
         -50      68.3857 -2.05079e-05 -1.61477e-05     -37.3119 
         -50      68.7451  -2.0323e-05 -1.60095e-05     -37.3033 
         -50      69.1055  -2.0101e-05 -1.58096e-05     -37.2948 
         -50      69.4669 -1.98372e-05 -1.55548e-05     -37.2863 
         -50      69.8291 -1.96172e-05 -1.53527e-05     -37.2779 
         -50      70.1923 -1.96715e-05 -1.54782e-05     -37.2694 
         -50      70.5564 -1.96795e-05 -1.55706e-05      -37.261 
         -50      70.9217 -1.96494e-05 -1.56263e-05     -37.2525 
         -50      71.2877 -1.95896e-05 -1.56448e-05     -37.2441 
         -50      71.6546 -1.95077e-05 -1.56282e-05     -37.2357 
         -50      72.0225 -1.94106e-05 -1.55807e-05     -37.2273 
         -50      72.3915 -1.93045e-05 -1.55076e-05     -37.2189 
         -50      72.7613 -1.91946e-05 -1.54149e-05     -37.2106 
         -50       73.132 -1.90849e-05 -1.53089e-05     -37.2022 
         -50      73.5036 -1.89784e-05 -1.51957e-05     -37.1939 
         -50      73.8764 -1.88769e-05 -1.50808e-05     -37.1856 
         -50      74.2499 -1.87813e-05 -1.49689e-05     -37.1773 
         -50      74.6244 -1.86915e-05 -1.48636e-05     -37.1691 
         -50           75 -1.86062e-05  -1.4767e-05     -37.1608 
         -25            0 -5.93391e-20 -5.98586e-24     -37.2588 
         -25     0.000471 -5.78666e-06 -5.98097e-10     -37.2588 
         -25     0.001884 -2.03123e-05 -2.26916e-09     -37.2588 
         -25     0.004239 -3.66338e-05 -4.73497e-09     -37.2588 
         -25     0.007537 -4.75699e-05 -7.79438e-09     -37.2588 
         -25     0.011776 -4.97778e-05 -1.15785e-08     -37.2588 
         -25     0.016958 -4.56426e-05   -1.671e-08     -37.2588 
         -25     0.023081 -4.14288e-05 -2.42513e-08     -37.2588 
         -25      0.03015 -4.23595e-05 -3.54935e-08     -37.2588 
         -25     0.038157 -4.78225e-05 -5.16655e-08     -37.2588 
         -25     0.047107 -5.15057e-05 -7.39147e-08     -37.2588 
         -25     0.056999 -4.93483e-05 -1.03573e-07     -37.2588 
         -25     0.067837 -4.92884e-05 -1.42586e-07     -37.2588 
         -25     0.079614 -5.58969e-05 -1.92706e-07     -37.2588 
         -25     0.092332 -5.34902e-05 -2.54973e-07     -37.2588 
         -25     0.105992 -5.52775e-05 -3.31747e-07     -37.2588 
         -25       0.1206 -5.56948e-05 -4.24322e-07     -37.2588 
         -25     0.136145 -5.59629e-05 -5.34041e-07     -37.2588 
         -25     0.152631  -5.6386e-05 -6.62036e-07     -37.2588 
         -25     0.170067 -5.66594e-05 -8.09203e-07     -37.2588 
         -25     0.188438 -5.64304e-05  -9.7598e-07     -37.2588 
         -25     0.207751 -5.58369e-05 -1.16278e-06     -37.2588 
         -25     0.228006 -5.54603e-05 -1.36971e-06     -37.2588 
         -25     0.249212 -5.47313e-05 -1.59657e-06     -37.2588 
         -25     0.271351  -5.4064e-05 -1.84318e-06     -37.2588 
         -25     0.294433 -5.33282e-05 -2.10928e-06     -37.2588 
         -25     0.318456 -5.25443e-05 -2.39486e-06     -37.2588 
         -25     0.343432 -5.17742e-05 -2.69969e-06     -37.2587 
         -25     0.369339 -5.10588e-05 -3.02245e-06     -37.2587 
         -25     0.396189 -5.04187e-05 -3.36132e-06     -37.2587 
         -25     0.423981 -4.98603e-05  -3.7132e-06     -37.2587 
         -25     0.452726 -4.93825e-05 -4.07398e-06     -37.2587 
         -25     0.482403 -4.89837e-05 -4.43813e-06     -37.2587 
         -25     0.513021 -4.86652e-05 -4.80014e-06     -37.2587 
         -25     0.544594 -4.84288e-05 -5.15544e-06     -37.2587 
         -25     0.577096 -4.82633e-05 -5.50205e-06     -37.2587 
         -25     0.610541 -4.81124e-05 -5.84489e-06     -37.2587 
         -25     0.644927 -4.79904e-05 -6.19552e-06     -37.2587 
         -25      0.68027 -4.78604e-05 -6.55397e-06     -37.2587 
         -25     0.716541 -4.76901e-05 -6.91746e-06     -37.2587 
         -25     0.753754 -4.74538e-05 -7.28305e-06     -37.2586 
         -25     0.791909 -4.71329e-05 -7.64722e-06     -37.2586 
         -25     0.831022 -4.67159e-05 -8.00629e-06     -37.2586 
         -25     0.871061 -4.61989e-05 -8.35609e-06     -37.2586 
         -25     0.912043 -4.55846e-05 -8.69311e-06     -37.2586 
         -25     0.953966 -4.48821e-05 -9.01411e-06     -37.2586 
         -25     0.996849 -4.41054e-05 -9.31672e-06     -37.2585 
         -25      1.04066 -4.32735e-05 -9.59908e-06     -37.2585 
         -25      1.08541 -4.24069e-05 -9.86084e-06     -37.2585 
         -25      1.13112 -4.15272e-05 -1.01028e-05     -37.2585 
         -25      1.17775 -4.06568e-05 -1.03264e-05     -37.2584 
         -25      1.22533 -3.98151e-05 -1.05342e-05     -37.2584 
         -25      1.27384 -3.90194e-05  -1.0729e-05     -37.2584 