Variables = x, y, u, v, p

Zone, I=20800, F=POINT
         -50            0            0            0  0.000275076 
         -50     0.000234 -2.53111e-08 -2.87878e-12  0.000275076 
         -50     0.000939 -1.01008e-07 -1.90273e-11  0.000275076 
         -50     0.002113   -2.252e-07 -7.22215e-11  0.000275076 
         -50     0.003759 -3.95424e-07  -2.0665e-10  0.000275076 
         -50     0.005872 -6.07322e-07 -4.91106e-10  0.000275076 
         -50     0.008457  -8.5654e-07 -1.02572e-09  0.000275076 
         -50      0.01151 -1.13688e-06 -1.94275e-09  0.000275076 
         -50     0.015036 -1.44215e-06 -3.41122e-09  0.000275076 
         -50     0.019031 -1.76461e-06 -5.62927e-09  0.000275076 
         -50     0.023493 -2.09621e-06 -8.82246e-09  0.000275075 
         -50     0.028429 -2.42913e-06 -1.32483e-08  0.000275075 
         -50     0.033831 -2.75437e-06 -1.91769e-08  0.000275075 
         -50     0.039706 -3.06393e-06 -2.69234e-08  0.000275075 
         -50     0.046047 -3.34927e-06 -3.68293e-08  0.000275074 
         -50     0.052863 -3.60312e-06 -4.93151e-08  0.000275074 
         -50      0.06015 -3.81826e-06 -6.48328e-08  0.000275074 
         -50       0.0679 -3.98848e-06 -8.38168e-08  0.000275073 
         -50     0.076126 -4.10915e-06 -1.06588e-07  0.000275073 
         -50     0.084816 -4.17691e-06 -1.32992e-07  0.000275072 
         -50     0.093982  -4.1896e-06 -1.64825e-07  0.000275071 
         -50     0.103611 -4.14586e-06 -2.01927e-07  0.000275071 
         -50     0.113718 -4.04731e-06 -2.43692e-07   0.00027507 
         -50     0.124286 -3.89686e-06 -2.90006e-07  0.000275069 
         -50     0.135333 -3.69797e-06 -3.41384e-07  0.000275068 
         -50      0.14685  -3.4554e-06 -3.98429e-07  0.000275067 
         -50     0.158827 -3.17495e-06 -4.61556e-07  0.000275066 
         -50     0.171284 -2.86257e-06  -5.3075e-07  0.000275065 
         -50     0.184201 -2.52599e-06 -6.04875e-07  0.000275064 
         -50     0.197599 -2.17265e-06 -6.82108e-07  0.000275062 
         -50     0.211455 -1.81158e-06 -7.60035e-07  0.000275061 
         -50     0.225792 -1.45059e-06 -8.37766e-07   0.00027506 
         -50       0.2406 -1.09739e-06 -9.18651e-07  0.000275058 
         -50     0.255865 -7.53743e-07  -9.9666e-07  0.000275056 
         -50     0.271613 -4.33129e-07 -1.04859e-06  0.000275055 
         -50     0.287818 -1.40847e-07 -1.11205e-06  0.000275053 
         -50     0.304506  1.29511e-07 -1.20123e-06  0.000275052 
         -50      0.32165  3.79368e-07 -1.32125e-06   0.00027505 
         -50     0.339278  6.07352e-07 -1.46938e-06  0.000275049 
         -50     0.357377  8.08597e-07 -1.63562e-06  0.000275049 
         -50      0.37593  9.76469e-07  -1.8047e-06  0.000275049 
         -50     0.394968  1.10421e-06 -1.95892e-06  0.000275049 
         -50     0.414461  1.18543e-06 -2.07993e-06  0.000275048 
         -50      0.43444  1.21632e-06 -2.15248e-06  0.000275047 
         -50     0.454872  1.19635e-06 -2.16645e-06  0.000275045 
         -50     0.475791  1.12918e-06  -2.1195e-06   0.00027504 
         -50     0.497163  1.02275e-06 -2.01807e-06  0.000275033 
         -50     0.519021  8.87629e-07 -1.87659e-06  0.000275023 
         -50      0.54135  7.34522e-07  -1.7148e-06   0.00027501 
         -50     0.564131  5.68883e-07 -1.55096e-06  0.000274995 
         -50       0.5874   3.8209e-07 -1.39003e-06  0.000274978 
         -50     0.611121  1.68812e-07 -1.31703e-06  0.000274962 
         -50      0.63533  1.76588e-07 -2.24081e-06  0.000274969 
         -50      0.65999  1.47138e-07 -2.99066e-06  0.000274982 
         -50     0.685139  9.52697e-08 -3.56672e-06  0.000274999 
         -50     0.710759  3.45441e-08 -3.97301e-06  0.000275018 
         -50     0.736828 -2.29572e-08 -4.21946e-06  0.000275037 
         -50     0.763387 -6.69902e-08  -4.3215e-06  0.000275054 
         -50     0.790396 -8.90061e-08  -4.2983e-06  0.000275069 
         -50     0.817896 -8.25067e-08 -4.17273e-06   0.00027508 
         -50     0.845843 -4.30163e-08 -3.97046e-06  0.000275086 
         -50     0.874283    3.195e-08 -3.71823e-06  0.000275088 
         -50      0.90317   1.4263e-07 -3.44381e-06  0.000275085 
         -50     0.932551  2.87564e-07 -3.17324e-06  0.000275078 
         -50     0.962401  4.63132e-07   -2.931e-06  0.000275067 
         -50     0.992697   6.6392e-07 -2.73792e-06  0.000275053 
         -50      1.02349  8.83505e-07 -2.60953e-06  0.000275039 
         -50      1.05472  1.11358e-06 -2.55593e-06  0.000275024 
         -50      1.08645  1.34569e-06 -2.58003e-06  0.000275011 
         -50      1.11863  1.57017e-06 -2.67728e-06  0.000275002 
         -50       1.1513  1.77808e-06  -2.8356e-06  0.000274998 
         -50      1.18444  1.96039e-06 -3.03529e-06     0.000275 
         -50      1.21802  2.10922e-06 -3.25018e-06   0.00027501 
         -50      1.25211   2.2187e-06 -3.45016e-06  0.000275028 
         -50      1.28663  2.28482e-06 -3.60293e-06  0.000275053 
         -50      1.32165  2.30681e-06 -3.67943e-06  0.000275085 
         -50      1.35712  2.28737e-06 -3.65855e-06   0.00027512 
         -50      1.39308  2.23353e-06 -3.53509e-06  0.000275154 
         -50      1.42951  2.15733e-06 -3.32917e-06   0.00027518 
         -50      1.46638  2.07649e-06 -3.09833e-06  0.000275189 
         -50      1.50375  2.01471e-06 -2.95135e-06  0.000275169 
         -50      1.54156  1.93825e-06 -2.99504e-06  0.000275184 
         -50      1.57987  1.86353e-06 -3.01849e-06  0.000275203 
         -50      1.61863  1.79306e-06 -3.01802e-06  0.000275221 
         -50      1.65788  1.72624e-06 -2.99741e-06   0.00027524 
         -50      1.69757  1.66275e-06 -2.96021e-06  0.000275258 
         -50      1.73776   1.6021e-06 -2.90956e-06  0.000275276 
         -50      1.77842  1.54399e-06 -2.84841e-06  0.000275293 
         -50      1.81952  1.48814e-06 -2.77942e-06  0.000275311 
         -50      1.86113  1.43421e-06  -2.7048e-06  0.000275329 
         -50      1.90316  1.38204e-06 -2.62663e-06  0.000275346 
         -50      1.94571  1.33137e-06 -2.54646e-06  0.000275364 
         -50      1.98869  1.28213e-06 -2.46581e-06  0.000275381 
         -50      2.03217  1.23415e-06 -2.38562e-06  0.000275399 
         -50      2.07612  1.18737e-06 -2.30674e-06  0.000275417 
         -50      2.12051  1.14182e-06 -2.22978e-06  0.000275435 
         -50       2.1654  1.09739e-06 -2.15492e-06  0.000275453 
         -50      2.21073  1.05418e-06 -2.08234e-06  0.000275471 
         -50      2.25656  1.01217e-06  -2.0118e-06  0.000275489 
         -50      2.30283  9.71471e-07 -1.94315e-06  0.000275507 
         -50       2.3496  9.32093e-07 -1.87585e-06  0.000275525 
         -50      2.39685  8.94145e-07 -1.80946e-06  0.000275544 
         -50      2.44452  8.57735e-07 -1.74345e-06  0.000275562 
         -50      2.49271  8.22881e-07 -1.67712e-06   0.00027558 
         -50      2.54132  7.89701e-07 -1.60998e-06  0.000275598 
         -50      2.59044  7.58195e-07 -1.54137e-06  0.000275616 
         -50         2.64   7.2844e-07 -1.47095e-06  0.000275634 
         -50      2.69006  7.00394e-07 -1.39824e-06  0.000275652 
         -50      2.74056  6.74075e-07 -1.32314e-06  0.000275669 
         -50      2.79156  6.49378e-07 -1.24548e-06  0.000275686 
         -50      2.84304  6.26225e-07 -1.16544e-06  0.000275703 
         -50      2.89494  6.04493e-07 -1.08342e-06  0.000275719 
         -50      2.94735  5.83964e-07 -9.99782e-07  0.000275734 
         -50       3.0002  5.64449e-07 -9.15373e-07   0.00027575 
         -50      3.05355  5.45653e-07 -8.30922e-07  0.000275764 
         -50      3.10733  5.27309e-07  -7.4755e-07  0.000275778 
         -50      3.16163  5.09059e-07 -6.66196e-07  0.000275791 
         -50      3.21639  4.90573e-07    -5.88e-07  0.000275804 
         -50      3.27158   4.7151e-07 -5.14006e-07  0.000275816 
         -50      3.32729  4.51493e-07 -4.44874e-07  0.000275827 
         -50      3.38342  4.30231e-07  -3.8114e-07  0.000275838 
         -50      3.44007  4.07421e-07 -3.22604e-07  0.000275848 
         -50      3.49714  3.82906e-07  -2.6852e-07  0.000275858 
         -50      3.55472  3.56568e-07  -2.1698e-07  0.000275868 
         -50      3.61273  3.28517e-07 -1.64967e-07  0.000275877 
         -50      3.67125  2.98978e-07 -1.07692e-07  0.000275887 
         -50      3.73025  2.68488e-07 -3.84799e-08  0.000275896 
         -50      3.78967  2.38692e-07   2.8986e-08  0.000275907 
         -50      3.84961  2.12123e-07  8.10988e-08  0.000275917 
         -50      3.90996   1.8784e-07  1.26649e-07  0.000275925 
         -50      3.97084  1.68656e-07  1.75917e-07  0.000275931 
         -50      4.03214  1.49585e-07  2.25228e-07  0.000275936 
         -50      4.09395  1.29971e-07  2.73295e-07  0.000275941 
         -50      4.15624  1.09928e-07  3.19789e-07  0.000275946 
         -50      4.21895  8.96161e-08  3.64513e-07   0.00027595 
         -50      4.28217  6.91782e-08   4.0747e-07  0.000275955 
         -50      4.34582  4.88373e-08   4.4861e-07  0.000275959 
         -50      4.40998  2.87585e-08  4.88074e-07  0.000275964 
         -50      4.47457  9.16584e-09  5.25917e-07  0.000275968 
         -50      4.53968  -9.7967e-09  5.62338e-07  0.000275971 
         -50      4.60525 -2.79629e-08   5.9745e-07  0.000275974 
         -50      4.67125 -4.52033e-08  6.31362e-07  0.000275977 
         -50      4.73777 -6.14688e-08  6.64236e-07  0.000275979 
         -50       4.8047  -7.6702e-08  6.96096e-07  0.000275981 
         -50      4.87216 -9.09421e-08  7.27022e-07  0.000275983 
         -50      4.94003 -1.04227e-07  7.56954e-07  0.000275983 
         -50      5.00843  -1.1668e-07  7.85882e-07  0.000275984 
         -50      5.07724 -1.28418e-07  8.13659e-07  0.000275984 
         -50      5.14658 -1.39619e-07  8.40209e-07  0.000275984 
         -50      5.21639 -1.50441e-07  8.65375e-07  0.000275983 
         -50      5.28661 -1.61027e-07  8.89024e-07  0.000275982 
         -50      5.35736 -1.71505e-07  9.11131e-07   0.00027598 
         -50      5.42852 -1.81894e-07  9.31692e-07  0.000275979 
         -50      5.50021 -1.92134e-07  9.50923e-07  0.000275977 
         -50      5.57231 -2.01968e-07   9.6919e-07  0.000275975 
         -50      5.64493 -2.10956e-07  9.87209e-07  0.000275974 
         -50      5.71803 -2.18944e-07  1.00509e-06   0.00027597 
         -50      5.79154 -2.24655e-07  1.02192e-06  0.000275966 
         -50      5.86558 -2.29482e-07  1.03745e-06  0.000275962 
         -50      5.94003  -2.3434e-07  1.05161e-06  0.000275959 
         -50      6.01501 -2.39765e-07  1.06454e-06  0.000275955 
         -50       6.0904 -2.45935e-07  1.07648e-06  0.000275951 
         -50      6.16632 -2.52768e-07   1.0878e-06  0.000275947 
         -50      6.24271 -2.59948e-07  1.09888e-06  0.000275943 
         -50       6.3195 -2.67001e-07  1.11002e-06  0.000275939 
         -50      6.39683 -2.73372e-07  1.12138e-06  0.000275935 
         -50      6.47457 -2.78449e-07  1.13275e-06   0.00027593 
         -50      6.55284 -2.81653e-07  1.14349e-06  0.000275924 
         -50      6.63152 -2.82469e-07  1.15224e-06  0.000275918 
         -50      6.71073 -2.80509e-07  1.15678e-06  0.000275911 
         -50      6.79034 -2.81965e-07  1.16619e-06  0.000275906 
         -50      6.87049 -2.84953e-07  1.17648e-06    0.0002759 
         -50      6.95111  -2.8714e-07  1.18384e-06  0.000275894 
         -50      7.03214 -2.88689e-07  1.18908e-06  0.000275888 
         -50       7.1137 -2.89749e-07  1.19287e-06  0.000275881 
         -50      7.19566  -2.9044e-07  1.19574e-06  0.000275873 
         -50      7.27816 -2.90859e-07  1.19809e-06  0.000275866 
         -50      7.36106 -2.91076e-07  1.20023e-06  0.000275858 
         -50      7.44451  -2.9113e-07  1.20233e-06   0.00027585 
         -50      7.52842 -2.91025e-07  1.20448e-06  0.000275843 
         -50      7.61273 -2.90732e-07  1.20664e-06  0.000275835 
         -50      7.69758 -2.90182e-07   1.2087e-06  0.000275827 
         -50      7.78283 -2.89265e-07  1.21041e-06  0.000275819 
         -50      7.86862 -2.87822e-07  1.21142e-06   0.00027581 
         -50      7.95481 -2.85654e-07  1.21128e-06  0.000275801 
         -50      8.04155 -2.82498e-07  1.20939e-06  0.000275792 
         -50      8.12868 -2.81707e-07   1.2098e-06  0.000275784 
         -50      8.21635  -2.8172e-07  1.20997e-06  0.000275776 
         -50      8.30449 -2.81469e-07  1.20864e-06  0.000275767 
         -50      8.39303 -2.80789e-07  1.20592e-06  0.000275758 
         -50      8.48211 -2.79551e-07  1.20204e-06  0.000275749 
         -50      8.57159  -2.7768e-07  1.19736e-06   0.00027574 
         -50      8.66161 -2.75158e-07  1.19225e-06   0.00027573 
         -50      8.75203 -2.72036e-07  1.18709e-06  0.000275721 
         -50      8.84299 -2.68428e-07  1.18218e-06  0.000275711 
         -50      8.93443 -2.64516e-07  1.17764e-06  0.000275701 
         -50      9.02626 -2.60542e-07  1.17339e-06  0.000275691 
         -50      9.11863 -2.56775e-07  1.16895e-06  0.000275681 
         -50      9.21139 -2.53518e-07  1.16344e-06  0.000275671 
         -50      9.30471 -2.51053e-07  1.15536e-06  0.000275661 
         -50      9.39841 -2.46008e-07  1.15001e-06  0.000275651 
         -50      9.49267 -2.39443e-07  1.14738e-06  0.000275642 
         -50      9.58739 -2.34494e-07  1.14179e-06  0.000275632 
         -50      9.68251 -2.30544e-07  1.13429e-06  0.000275622 
         -50      9.77817 -2.27114e-07  1.12565e-06  0.000275612 
         -50      9.87422 -2.23863e-07  1.11647e-06  0.000275601 
         -50      9.97083 -2.20553e-07  1.10712e-06   0.00027559 
         -50      10.0678 -2.17048e-07  1.09788e-06  0.000275579 
         -50      10.1654 -2.13278e-07  1.08884e-06  0.000275568 
         -50      10.2633 -2.09246e-07  1.08005e-06  0.000275557 
         -50      10.3618 -2.04988e-07  1.07144e-06  0.000275545 
         -50      10.4607 -2.00579e-07  1.06293e-06  0.000275534 
         -50      10.5601 -1.96113e-07   1.0544e-06  0.000275523 
         -50        10.66 -1.91676e-07  1.04572e-06  0.000275512 
         -50      10.7603 -1.87363e-07  1.03678e-06  0.000275501 
         -50      10.8611 -1.83239e-07  1.02749e-06   0.00027549 
         -50      10.9623  -1.7936e-07  1.01782e-06  0.000275478 
         -50      11.0641 -1.75741e-07  1.00775e-06  0.000275467 
         -50      11.1663 -1.72371e-07  9.97348e-07  0.000275456 
         -50       11.269 -1.69212e-07  9.86725e-07  0.000275445 
         -50      11.3721 -1.66182e-07  9.76014e-07  0.000275434 
         -50      11.4757 -1.63189e-07  9.65418e-07  0.000275423 
         -50      11.5798 -1.60112e-07  9.55123e-07  0.000275411 
         -50      11.6844 -1.56835e-07  9.45347e-07    0.0002754 
         -50      11.7894 -1.53246e-07   9.3624e-07  0.000275388 
         -50       11.895 -1.49271e-07  9.27909e-07  0.000275377 
         -50      12.0009 -1.44894e-07  9.20342e-07  0.000275365 
         -50      12.1073 -1.40176e-07  9.13339e-07  0.000275353 
         -50      12.2142 -1.35314e-07  9.06496e-07  0.000275341 
         -50      12.3216 -1.30654e-07  8.99084e-07  0.000275328 
         -50      12.4294 -1.26765e-07  8.90008e-07  0.000275316 
         -50      12.5378 -1.24466e-07  8.77669e-07  0.000275303 
         -50      12.6465 -1.21806e-07  8.64141e-07  0.000275291 
         -50      12.7558 -1.09029e-07   8.5654e-07  0.000275279 
         -50      12.8656 -1.06561e-07  8.44326e-07  0.000275267 
         -50      12.9757 -1.02779e-07  8.33547e-07  0.000275255 
         -50      13.0864 -9.86216e-08  8.30877e-07  0.000275244 
         -50      13.1975 -9.39354e-08  8.25956e-07  0.000275232 
         -50      13.3092 -8.91083e-08  8.19441e-07  0.000275221 
         -50      13.4212 -8.44266e-08  8.11875e-07  0.000275209 
         -50      13.5338 -8.00623e-08  8.03661e-07  0.000275196 
         -50      13.6468 -7.61153e-08   7.9512e-07  0.000275184 
         -50      13.7603  -7.2617e-08   7.8648e-07  0.000275171 
         -50      13.8743 -6.95384e-08  7.77875e-07  0.000275158 
         -50      13.9886 -6.68235e-08  7.69399e-07  0.000275146 
         -50      14.1036 -6.43825e-08  7.61071e-07  0.000275133 
         -50      14.2189  -6.2122e-08  7.52894e-07   0.00027512 
         -50      14.3348 -5.99401e-08  7.44816e-07  0.000275107 
         -50       14.451 -5.77509e-08  7.36794e-07  0.000275094 
         -50      14.5678 -5.54783e-08  7.28751e-07  0.000275081 
         -50      14.6851 -5.30747e-08  7.20627e-07  0.000275068 
         -50      14.8028 -5.05209e-08  7.12372e-07  0.000275055 
         -50       14.921 -4.78216e-08   7.0393e-07  0.000275042 
         -50      15.0396 -4.50206e-08  6.95291e-07  0.000275029 
         -50      15.1588 -4.21809e-08  6.86439e-07  0.000275016 
         -50      15.2783  -3.9398e-08  6.77414e-07  0.000275002 
         -50      15.3984 -3.67737e-08  6.68251e-07  0.000274989 
         -50       15.519 -3.44215e-08  6.59031e-07  0.000274976 
         -50        15.64 -3.24438e-08  6.49858e-07  0.000274962 
         -50      15.7615 -3.09116e-08  6.40828e-07  0.000274948 
         -50      15.8834 -2.98519e-08  6.32072e-07  0.000274934 
         -50      16.0058 -2.92131e-08  6.23692e-07  0.000274921 
         -50      16.1286 -2.88418e-08  6.15801e-07  0.000274907 
         -50       16.252 -2.84434e-08  6.08454e-07  0.000274893 
         -50      16.3759 -2.75455e-08  6.01672e-07  0.000274879 
         -50      16.5002 -2.54537e-08  5.95405e-07  0.000274865 
         -50       16.625 -2.11952e-08  5.89488e-07  0.000274852 
         -50      16.7501 -1.42305e-08  5.82722e-07  0.000274838 
         -50      16.8759  -7.8921e-09  5.74557e-07  0.000274822 
         -50       17.002 -2.68568e-09  5.66319e-07  0.000274808 
         -50      17.1287  1.52336e-09   5.5825e-07  0.000274793 
         -50      17.2557  4.86117e-09  5.50531e-07  0.000274778 
         -50      17.3834  7.46962e-09  5.43242e-07  0.000274763 
         -50      17.5115  9.48277e-09  5.36425e-07  0.000274748 
         -50      17.6399  1.10341e-08  5.30067e-07  0.000274734 
         -50       17.769  1.22551e-08  5.24101e-07  0.000274719 
         -50      17.8984  1.32646e-08  5.18453e-07  0.000274703 
         -50      18.0284  1.41744e-08  5.13008e-07  0.000274688 
         -50      18.1587  1.50802e-08  5.07663e-07  0.000274673 
         -50      18.2896  1.60651e-08  5.02294e-07  0.000274657 
         -50       18.421  1.71932e-08  4.96796e-07  0.000274642 
         -50      18.5528  1.85089e-08  4.91077e-07  0.000274626 
         -50      18.6851  2.00394e-08   4.8505e-07   0.00027461 
         -50      18.8178  2.17858e-08   4.7867e-07  0.000274594 
         -50      18.9511  2.37316e-08  4.71897e-07  0.000274578 
         -50      19.0847  2.58316e-08   4.6474e-07  0.000274562 
         -50      19.2189  2.80237e-08  4.57214e-07  0.000274545 
         -50      19.3535  3.02159e-08  4.49385e-07  0.000274529 
         -50      19.4886  3.23007e-08  4.41319e-07  0.000274512 
         -50      19.6242  3.41436e-08   4.3312e-07  0.000274496 
         -50      19.7602  3.55913e-08  4.24906e-07   0.00027448 
         -50      19.8968  3.64758e-08  4.16779e-07  0.000274463 
         -50      20.0337  3.66104e-08  4.08865e-07  0.000274447 
         -50      20.1712  3.57976e-08  4.01242e-07  0.000274431 
         -50      20.3091  3.37717e-08  3.94571e-07  0.000274415 
         -50      20.4475  3.16689e-08  3.89711e-07  0.000274398 
         -50      20.5864     3.07e-08  3.84512e-07   0.00027438 
         -50      20.7257  3.11312e-08  3.79253e-07  0.000274361 
         -50      20.8655  3.34054e-08  3.74233e-07  0.000274343 
         -50      21.0058  3.81879e-08  3.69791e-07  0.000274323 
         -50      21.1465  4.64434e-08  3.66263e-07  0.000274304 
         -50      21.2877  4.74333e-08  3.59762e-07  0.000274286 
         -50      21.4294  4.22813e-08  3.49248e-07  0.000274269 
         -50      21.5716  4.39864e-08  3.40385e-07  0.000274252 
         -50      21.7142  4.87643e-08  3.33262e-07  0.000274234 
         -50      21.8573  5.40984e-08  3.27782e-07  0.000274215 
         -50      22.0008  5.73997e-08  3.24261e-07  0.000274197 
         -50      22.1449  5.72618e-08  3.21668e-07  0.000274177 
         -50      22.2893  5.64999e-08  3.18197e-07  0.000274158 
         -50      22.4344  5.54192e-08  3.14035e-07  0.000274138 
         -50      22.5797  5.43008e-08  3.09347e-07  0.000274119 
         -50      22.7257   5.3382e-08  3.04248e-07  0.000274099 
         -50      22.8721  5.28506e-08   2.9884e-07   0.00027408 
         -50      23.0189  5.28324e-08  2.93203e-07   0.00027406 
         -50      23.1663  5.33869e-08   2.8739e-07  0.000274041 
         -50       23.314  5.45043e-08  2.81458e-07  0.000274021 
         -50      23.4623  5.61107e-08  2.75441e-07  0.000274001 
         -50       23.611  5.80669e-08  2.69384e-07  0.000273982 
         -50      23.7602  6.01869e-08  2.63313e-07  0.000273962 
         -50        23.91  6.22426e-08   2.5727e-07  0.000273941 
         -50        24.06  6.39866e-08  2.51295e-07  0.000273921 
         -50      24.2107  6.51801e-08  2.45416e-07  0.000273901 
         -50      24.3617  6.56129e-08  2.39682e-07   0.00027388 
         -50      24.5133  6.51443e-08  2.34121e-07  0.000273859 
         -50      24.6653  6.37412e-08  2.28774e-07  0.000273837 
         -50      24.8178  6.15212e-08  2.23657e-07  0.000273816 
         -50      24.9708  5.88111e-08  2.18788e-07  0.000273795 
         -50      25.1242  5.62049e-08  2.14163e-07  0.000273773 
         -50      25.2781  5.46223e-08  2.09741e-07  0.000273752 
         -50      25.4324  5.53946e-08  2.05458e-07  0.000273731 
         -50      25.5873  6.18195e-08  1.99394e-07  0.000273708 
         -50      25.7426  6.59928e-08  1.94813e-07  0.000273685 
         -50      25.8984  6.78171e-08  1.91207e-07  0.000273662 
         -50      26.0546  6.77672e-08  1.88026e-07   0.00027364 
         -50      26.2114  6.64202e-08  1.84909e-07  0.000273617 
         -50      26.3686  6.44093e-08   1.8169e-07  0.000273594 
         -50      26.5262  6.23657e-08  1.78346e-07  0.000273571 
         -50      26.6844  6.08333e-08  1.74932e-07  0.000273548 
         -50      26.8429  6.01827e-08  1.71516e-07  0.000273526 
         -50       27.002  6.04862e-08  1.68042e-07  0.000273503 
         -50      27.1615   6.1384e-08  1.64225e-07   0.00027348 
         -50      27.3216  6.19256e-08  1.59358e-07  0.000273457 
         -50      27.4821  6.03821e-08  1.52146e-07  0.000273433 
         -50       27.643  5.93615e-08  1.47075e-07  0.000273409 
         -50      27.8044  5.98198e-08  1.44336e-07  0.000273385 
         -50      27.9663  5.99638e-08  1.41246e-07   0.00027336 
         -50      28.1287  5.99531e-08  1.37922e-07  0.000273336 
         -50      28.2914   5.9908e-08  1.34473e-07  0.000273311 
         -50      28.4548  5.99146e-08  1.30976e-07  0.000273287 
         -50      28.6185  6.00287e-08  1.27507e-07  0.000273262 
         -50      28.7828  6.02804e-08  1.24112e-07  0.000273237 
         -50      28.9475  6.06776e-08  1.20833e-07  0.000273211 
         -50      29.1126  6.12099e-08  1.17701e-07  0.000273186 
         -50      29.2784  6.18541e-08  1.14725e-07  0.000273161 
         -50      29.4444  6.25742e-08  1.11919e-07  0.000273135 
         -50       29.611  6.33294e-08  1.09277e-07  0.000273109 
         -50       29.778  6.40724e-08  1.06796e-07  0.000273083 
         -50      29.9456  6.47571e-08  1.04459e-07  0.000273057 
         -50      30.1137  6.53372e-08  1.02252e-07  0.000273031 
         -50      30.2821  6.57705e-08  1.00156e-07  0.000273004 
         -50      30.4511  6.60223e-08   9.8146e-08  0.000272978 
         -50      30.6204  6.60643e-08  9.62029e-08  0.000272951 
         -50      30.7903  6.58783e-08  9.43006e-08  0.000272924 
         -50      30.9606  6.54567e-08  9.24199e-08  0.000272897 
         -50      31.1315  6.48023e-08  9.05368e-08   0.00027287 
         -50      31.3028  6.39303e-08   8.8634e-08  0.000272843 
         -50      31.4745  6.28681e-08  8.66965e-08  0.000272815 
         -50      31.6468  6.16514e-08  8.47074e-08  0.000272788 
         -50      31.8194  6.03294e-08   8.2659e-08   0.00027276 
         -50      31.9926  5.89558e-08  8.05403e-08  0.000272732 
         -50      32.1662  5.75946e-08  7.83496e-08  0.000272704 
         -50      32.3404  5.63094e-08  7.60811e-08  0.000272676 
         -50      32.5149  5.51683e-08  7.37386e-08  0.000272648 
         -50        32.69  5.42323e-08  7.13199e-08   0.00027262 
         -50      32.8655  5.35574e-08  6.88297e-08  0.000272591 
         -50      33.0414  5.31857e-08  6.62725e-08  0.000272562 
         -50       33.218  5.31397e-08  6.36459e-08  0.000272533 
         -50      33.3948  5.34171e-08  6.09529e-08  0.000272504 
         -50      33.5723  5.39831e-08   5.8184e-08  0.000272475 
         -50        33.75  5.47604e-08  5.53326e-08  0.000272446 
         -50      33.9284  5.56237e-08   5.2375e-08  0.000272417 
         -50      34.1073  5.63857e-08  4.92839e-08  0.000272387 
         -50      34.2865  5.67887e-08  4.60196e-08  0.000272358 
         -50      34.4663   5.6493e-08  4.25188e-08  0.000272328 
         -50      34.6465  5.50638e-08    3.871e-08  0.000272298 
         -50      34.8272  5.19536e-08  3.44878e-08  0.000272268 
         -50      35.0083  4.78688e-08  3.26724e-08  0.000272237 
         -50        35.19  4.43209e-08  3.23269e-08  0.000272207 
         -50      35.3721  4.10212e-08  3.14894e-08  0.000272176 
         -50      35.5546  4.03225e-08  3.07329e-08  0.000272146 
         -50      35.7377  4.90015e-08  3.17649e-08  0.000272115 
         -50      35.9211  5.41673e-08  3.33326e-08  0.000272084 
         -50      36.1052  5.65933e-08  3.53101e-08  0.000272053 
         -50      36.2895  5.69607e-08  3.75767e-08  0.000272022 
         -50      36.4745  5.58809e-08   4.0028e-08  0.000271991 
         -50      36.6598  5.38937e-08  4.25616e-08   0.00027196 
         -50      36.8457  5.13746e-08   4.4757e-08  0.000271928 
         -50      37.0321   4.7231e-08  4.10797e-08  0.000271896 
         -50      37.2188   4.3387e-08   3.7254e-08  0.000271864 
         -50      37.4062   4.0084e-08   3.3366e-08  0.000271832 
         -50      37.5938  3.74753e-08   2.9496e-08  0.000271799 
         -50      37.7821  3.56216e-08  2.56955e-08  0.000271767 
         -50      37.9707  3.45219e-08  2.20147e-08  0.000271734 
         -50      38.1599   3.4116e-08  1.84795e-08  0.000271701 
         -50      38.3496  3.43052e-08   1.5115e-08  0.000271668 
         -50      38.5396  3.49601e-08  1.19375e-08  0.000271635 
         -50      38.7302   3.5936e-08  8.94929e-09  0.000271602 
         -50      38.9211  3.70793e-08  6.15757e-09  0.000271569 
         -50      39.1127  3.82422e-08  3.55678e-09  0.000271536 
         -50      39.3046  3.92852e-08  1.14775e-09  0.000271502 
         -50      39.4971  4.00908e-08 -1.07785e-09  0.000271469 
         -50      39.6899  4.05636e-08  -3.1212e-09  0.000271435 
         -50      39.8833  4.06395e-08 -4.98971e-09  0.000271401 
         -50      40.0772  4.02862e-08 -6.68477e-09  0.000271367 
         -50      40.2714  3.95076e-08 -8.20692e-09  0.000271333 
         -50      40.4663  3.83406e-08 -9.55866e-09  0.000271299 
         -50      40.6615  3.68591e-08 -1.07365e-08  0.000271265 
         -50      40.8573  3.51638e-08 -1.17397e-08  0.000271231 
         -50      41.0534  3.33864e-08 -1.25637e-08  0.000271196 
         -50      41.2501  3.16725e-08 -1.32069e-08  0.000271162 
         -50      41.4473  3.01831e-08 -1.36672e-08  0.000271127 
         -50      41.6448  2.90786e-08 -1.39457e-08  0.000271092 
         -50      41.8429   2.8504e-08 -1.40488e-08  0.000271057 
         -50      42.0414  2.85792e-08 -1.39887e-08  0.000271022 
         -50      42.2405   2.9378e-08 -1.37864e-08  0.000270987 
         -50      42.4399   3.0908e-08 -1.34749e-08  0.000270952 
         -50      42.6399  3.30928e-08 -1.31012e-08  0.000270917 
         -50      42.8404    3.574e-08 -1.27308e-08  0.000270881 
         -50      43.0412  3.85154e-08 -1.24509e-08  0.000270845 
         -50      43.2426  4.09207e-08 -1.23742e-08   0.00027081 
         -50      43.4444  4.22451e-08 -1.26443e-08  0.000270774 
         -50      43.6467  4.15418e-08  -1.3441e-08  0.000270738 
         -50      43.8494  3.75827e-08 -1.49833e-08  0.000270702 
         -50      44.0527  2.88065e-08  -1.7541e-08  0.000270665 
         -50      44.2563  1.37347e-08  -2.1362e-08  0.000270629 
         -50      44.4606  1.43391e-08 -2.27339e-08  0.000270593 
         -50      44.6653  1.62388e-08 -2.37746e-08  0.000270557 
         -50      44.8704  1.90532e-08   -2.456e-08   0.00027052 
         -50       45.076  2.23959e-08 -2.51464e-08  0.000270484 
         -50       45.282  2.58696e-08  -2.5575e-08  0.000270447 
         -50      45.4886  2.90983e-08 -2.58834e-08   0.00027041 
         -50      45.6955  3.17172e-08 -2.61118e-08  0.000270373 
         -50       45.903   3.3404e-08 -2.63139e-08  0.000270336 
         -50      46.1111  3.38737e-08 -2.65646e-08  0.000270299 
         -50      46.3194  3.28997e-08 -2.69698e-08  0.000270262 
         -50      46.5283  3.03179e-08 -2.76777e-08  0.000270224 
         -50      46.7376   2.6045e-08 -2.88858e-08  0.000270187 
         -50      46.9475  2.00713e-08 -3.08569e-08  0.000270149 
         -50      47.1577  1.24969e-08 -3.39212e-08  0.000270112 
         -50      47.3685  1.00348e-08 -3.57331e-08  0.000270074 
         -50      47.5798  1.61191e-08 -3.39011e-08  0.000270036 
         -50      47.7914  1.97094e-08 -3.26797e-08  0.000269998 
         -50      48.0037  2.13874e-08 -3.19812e-08   0.00026996 