Variables = x, y, u, v, p

Zone, I=6400, F=POINT
         -50            0            0            0     -40.9725 
         -50     0.000471 -1.62138e-05 -1.74986e-09     -40.9725 
         -50     0.001884  -5.7585e-05 -6.80304e-09     -40.9725 
         -50     0.004239 -0.000106105 -1.46875e-08     -40.9725 
         -50     0.007537 -0.000142525 -2.49561e-08     -40.9725 
         -50     0.011776 -0.000156564  -3.7514e-08     -40.9725 
         -50     0.016958 -0.000152131 -5.28528e-08     -40.9725 
         -50     0.023081 -0.000143626 -7.19995e-08     -40.9725 
         -50      0.03015 -0.000144599 -9.62949e-08     -40.9725 
         -50     0.038157 -0.000155863 -1.27013e-07     -40.9725 
         -50     0.047107 -0.000164225 -1.65356e-07     -40.9725 
         -50     0.056999 -0.000159311 -2.12689e-07     -40.9725 
         -50     0.067837 -0.000156747 -2.70946e-07     -40.9725 
         -50     0.079614  -0.00017013 -3.41394e-07     -40.9725 
         -50     0.092332 -0.000164517 -4.25346e-07     -40.9725 
         -50     0.105992 -0.000167026 -5.25779e-07     -40.9725 
         -50       0.1206 -0.000167607 -6.43787e-07     -40.9725 
         -50     0.136145 -0.000168014 -7.81143e-07     -40.9725 
         -50     0.152631 -0.000168719 -9.39668e-07     -40.9725 
         -50     0.170067 -0.000169324 -1.12114e-06     -40.9725 
         -50     0.188438 -0.000169337 -1.32698e-06     -40.9725 
         -50     0.207751 -0.000168918 -1.55867e-06     -40.9725 
         -50     0.228006  -0.00016884 -1.81751e-06     -40.9725 
         -50     0.249212 -0.000168345 -2.10479e-06     -40.9725 
         -50     0.271351 -0.000167919 -2.40961e-06     -40.9725 
         -50     0.294433 -0.000167398 -2.74952e-06     -40.9724 
         -50     0.318456 -0.000166798 -3.11971e-06     -40.9724 
         -50     0.343432 -0.000166193 -3.50899e-06     -40.9724 
         -50     0.369339 -0.000165634 -3.90276e-06     -40.9724 
         -50     0.396189 -0.000165151 -4.28804e-06     -40.9724 
         -50     0.423981 -0.000164754 -4.65715e-06     -40.9724 
         -50     0.452726 -0.000164445 -5.01176e-06     -40.9724 
         -50     0.482403 -0.000164219 -5.36396e-06     -40.9723 
         -50     0.513021 -0.000164075  -5.7343e-06     -40.9723 
         -50     0.544594 -0.000164009 -6.14172e-06     -40.9723 
         -50     0.577096 -0.000164008 -6.58225e-06     -40.9723 
         -50     0.610541 -0.000164021 -7.01291e-06     -40.9723 
         -50     0.644927 -0.000164011 -7.76233e-06     -40.9722 
         -50      0.68027 -0.000163976 -8.45635e-06     -40.9722 
         -50     0.716541 -0.000163898 -9.08459e-06     -40.9722 
         -50     0.753754  -0.00016376 -9.64541e-06     -40.9721 
         -50     0.791909 -0.000163548  -1.0144e-05     -40.9721 
         -50     0.831022 -0.000163251 -1.05919e-05      -40.972 
         -50     0.871061  -0.00016286 -1.10041e-05      -40.972 
         -50     0.912043 -0.000162371 -1.13988e-05     -40.9719 
         -50     0.953966  -0.00016178 -1.17936e-05     -40.9719 
         -50     0.996849 -0.000161087 -1.22038e-05     -40.9718 
         -50      1.04066 -0.000160296 -1.26392e-05     -40.9718 
         -50      1.08541 -0.000159411 -1.31027e-05     -40.9717 
         -50      1.13112 -0.000158436 -1.35886e-05     -40.9717 
         -50      1.17775 -0.000157377 -1.40813e-05     -40.9716 
         -50      1.22533 -0.000156239 -1.45579e-05     -40.9715 
         -50      1.27384 -0.000155025  -1.4991e-05     -40.9714 
         -50      1.32333 -0.000153733 -1.53549e-05     -40.9713 
         -50      1.37373 -0.000152361 -1.56364e-05     -40.9712 
         -50      1.42507 -0.000150899 -1.58502e-05     -40.9712 
         -50      1.47736 -0.000149332 -1.60607e-05      -40.971 
         -50      1.53061 -0.000147543 -1.62926e-05     -40.9709 
         -50      1.58478 -0.000145795 -1.64981e-05     -40.9708 
         -50      1.63989 -0.000144257 -1.67402e-05     -40.9707 
         -50      1.69595 -0.000142873 -1.69873e-05     -40.9706 
         -50      1.75297 -0.000141593 -1.72147e-05     -40.9705 
         -50      1.81091 -0.000140382 -1.74047e-05     -40.9703 
         -50      1.86979 -0.000139212  -1.7547e-05     -40.9702 
         -50      1.92964 -0.000138069 -1.76374e-05       -40.97 
         -50       1.9904 -0.000136948 -1.76778e-05     -40.9699 
         -50      2.05211  -0.00013585 -1.76752e-05     -40.9697 
         -50      2.11476 -0.000134787 -1.76411e-05     -40.9695 
         -50      2.17838 -0.000133776 -1.75899e-05     -40.9693 
         -50      2.24291 -0.000132838 -1.75384e-05     -40.9692 
         -50      2.30839 -0.000131998 -1.75039e-05      -40.969 
         -50       2.3748 -0.000131279 -1.75032e-05     -40.9688 
         -50      2.44219 -0.000130704 -1.75512e-05     -40.9685 
         -50      2.51049 -0.000130294 -1.76595e-05     -40.9683 
         -50      2.57974 -0.000130061 -1.78349e-05     -40.9681 
         -50      2.64993 -0.000130011  -1.8079e-05     -40.9678 
         -50      2.72108 -0.000130142 -1.83868e-05     -40.9676 
         -50      2.79315  -0.00013044 -1.87463e-05     -40.9673 
         -50      2.86617  -0.00013088 -1.91389e-05      -40.967 
         -50      2.94012 -0.000131428 -1.95394e-05     -40.9668 
         -50      3.01505 -0.000132039 -1.99182e-05     -40.9665 
         -50      3.09089  -0.00013266 -2.02425e-05     -40.9662 
         -50      3.16767 -0.000133237 -2.04805e-05     -40.9658 
         -50      3.24542 -0.000133715  -2.0606e-05     -40.9655 
         -50      3.32409 -0.000134051 -2.06038e-05     -40.9652 
         -50       3.4037  -0.00013422 -2.04786e-05     -40.9648 
         -50      3.48425  -0.00013423 -2.02645e-05     -40.9644 
         -50      3.56577 -0.000134135 -2.00373e-05     -40.9641 
         -50       3.6482  -0.00013406 -1.99299e-05     -40.9637 
         -50      3.73158 -0.000134217 -2.01499e-05     -40.9633 
         -50       3.8159 -0.000134619 -1.98402e-05     -40.9628 
         -50      3.90119 -0.000134907 -1.94107e-05     -40.9624 
         -50       3.9874 -0.000135002 -1.96672e-05      -40.962 
         -50      4.07454 -0.000135168 -2.00837e-05     -40.9615 
         -50      4.16263 -0.000135442 -2.05048e-05      -40.961 
         -50      4.25169 -0.000135788 -2.09297e-05     -40.9605 
         -50      4.34166 -0.000136169 -2.13552e-05       -40.96 
         -50      4.43258 -0.000136551 -2.17763e-05     -40.9595 
         -50      4.52447 -0.000136908 -2.21862e-05     -40.9589 
         -50      4.61726 -0.000137223 -2.25756e-05     -40.9584 
         -50        4.711 -0.000137494 -2.29339e-05     -40.9578 
         -50      4.80569 -0.000137729 -2.32495e-05     -40.9572 
         -50      4.90135 -0.000137952 -2.35103e-05     -40.9566 
         -50      4.99791 -0.000138193 -2.37047e-05      -40.956 
         -50      5.09542 -0.000138487 -2.38236e-05     -40.9553 
         -50      5.19387 -0.000138869  -2.3862e-05     -40.9547 
         -50       5.2933 -0.000139356 -2.38208e-05      -40.954 
         -50      5.39364 -0.000139937 -2.37105e-05     -40.9533 
         -50      5.49491 -0.000140555 -2.35539e-05     -40.9526 
         -50      5.59713 -0.000141082 -2.33902e-05     -40.9518 
         -50      5.70033 -0.000140831 -2.34395e-05     -40.9511 
         -50      5.80443 -0.000140423 -2.33828e-05     -40.9503 
         -50      5.90948 -0.000140417 -2.32957e-05     -40.9495 
         -50      6.01551 -0.000140688 -2.33686e-05     -40.9486 
         -50      6.12244  -0.00014107 -2.36296e-05     -40.9478 
         -50      6.23031 -0.000141387 -2.40005e-05     -40.9469 
         -50      6.33912 -0.000141495 -2.43618e-05      -40.946 
         -50      6.44892  -0.00014133 -2.46259e-05     -40.9451 
         -50      6.55962 -0.000140964 -2.48203e-05     -40.9442 
         -50      6.67126 -0.000140673 -2.51816e-05     -40.9432 
         -50      6.78384 -0.000141015 -2.58134e-05     -40.9422 
         -50      6.89741 -0.000141483 -2.60086e-05     -40.9412 
         -50      7.01187 -0.000141762 -2.60292e-05     -40.9402 
         -50      7.12728 -0.000141903 -2.59615e-05     -40.9391 
         -50      7.24363 -0.000141941 -2.58834e-05      -40.938 
         -50      7.36097 -0.000141905 -2.58562e-05     -40.9369 
         -50       7.4792 -0.000141816 -2.59174e-05     -40.9358 
         -50      7.59838 -0.000141697 -2.60769e-05     -40.9346 
         -50      7.71854 -0.000141573 -2.63156e-05     -40.9334 
         -50       7.8396 -0.000141487 -2.65872e-05     -40.9322 
         -50      7.96161 -0.000141498 -2.68247e-05      -40.931 
         -50      8.08455 -0.000141628 -2.68738e-05     -40.9297 
         -50      8.20849 -0.000141588 -2.67529e-05     -40.9284 
         -50      8.33332 -0.000141526 -2.68986e-05     -40.9271 
         -50      8.45909  -0.00014142 -2.71937e-05     -40.9257 
         -50       8.5858  -0.00014129 -2.75534e-05     -40.9243 
         -50      8.71351 -0.000141181 -2.79207e-05     -40.9229 
         -50       8.8421 -0.000141139 -2.82532e-05     -40.9215 
         -50      8.97164 -0.000141191 -2.85037e-05       -40.92 
         -50      9.10212  -0.00014131 -2.85896e-05     -40.9185 
         -50       9.2336 -0.000141381 -2.83526e-05     -40.9169 
         -50      9.36596 -0.000141172 -2.77076e-05     -40.9154 
         -50      9.49927 -0.000140792 -2.80151e-05     -40.9138 
         -50      9.63352 -0.000140428 -2.80738e-05     -40.9121 
         -50      9.76877 -0.000140107  -2.8012e-05     -40.9104 
         -50       9.9049 -0.000139842 -2.79199e-05     -40.9087 
         -50       10.042 -0.000139635  -2.7856e-05      -40.907 
         -50      10.1801 -0.000139478 -2.78537e-05     -40.9052 
         -50       10.319  -0.00013936 -2.79271e-05     -40.9034 
         -50      10.4589 -0.000139264 -2.80765e-05     -40.9016 
         -50      10.5998 -0.000139175 -2.82943e-05     -40.8997 
         -50      10.7416 -0.000139078 -2.85688e-05     -40.8978 
         -50      10.8843 -0.000138964 -2.88877e-05     -40.8959 
         -50       11.028 -0.000138827 -2.92418e-05     -40.8939 
         -50      11.1726 -0.000138667 -2.96259e-05     -40.8919 
         -50      11.3182 -0.000138492 -3.00392e-05     -40.8898 
         -50      11.4647 -0.000138314 -3.04839e-05     -40.8877 
         -50      11.6122 -0.000138151 -3.09627e-05     -40.8856 
         -50      11.7605 -0.000138024 -3.14737e-05     -40.8834 
         -50      11.9099 -0.000137954 -3.20036e-05     -40.8812 
         -50      12.0602 -0.000137957 -3.25172e-05      -40.879 
         -50      12.2114 -0.000138042 -3.29468e-05     -40.8767 
         -50      12.3636 -0.000138202 -3.31759e-05     -40.8744 
         -50      12.5167 -0.000138405 -3.30211e-05      -40.872 
         -50      12.6707 -0.000137792 -3.32648e-05     -40.8696 
         -50      12.8257 -0.000137028 -3.44545e-05     -40.8672 
         -50      12.9817  -0.00013723 -3.50653e-05     -40.8647 
         -50      13.1386 -0.000136943 -3.55123e-05     -40.8622 
         -50      13.2964 -0.000136597 -3.57267e-05     -40.8596 
         -50      13.4551 -0.000136267 -3.58062e-05      -40.857 
         -50      13.6149 -0.000135997 -3.58261e-05     -40.8544 
         -50      13.7755 -0.000135802 -3.58408e-05     -40.8517 
         -50      13.9371 -0.000135676 -3.58868e-05      -40.849 
         -50      14.0996 -0.000135599 -3.59841e-05     -40.8462 
         -50      14.2631 -0.000135545 -3.61394e-05     -40.8434 
         -50      14.4275 -0.000135482 -3.63477e-05     -40.8405 
         -50      14.5928 -0.000135385  -3.6596e-05     -40.8376 
         -50      14.7592 -0.000135231 -3.68657e-05     -40.8347 
         -50      14.9264 -0.000135009 -3.71353e-05     -40.8317 
         -50      15.0946 -0.000134721 -3.73843e-05     -40.8286 
         -50      15.2637 -0.000134378 -3.75958e-05     -40.8256 
         -50      15.4338 -0.000134003 -3.77602e-05     -40.8224 
         -50      15.6048 -0.000133632 -3.78788e-05     -40.8193 
         -50      15.7767 -0.000133301 -3.79671e-05     -40.8161 
         -50      15.9496  -0.00013305 -3.80589e-05     -40.8128 
         -50      16.1235 -0.000132906 -3.82099e-05     -40.8095 
         -50      16.2982  -0.00013288 -3.85016e-05     -40.8062 
         -50      16.4739 -0.000132949 -3.90455e-05     -40.8028 
         -50      16.6506 -0.000133043 -3.99867e-05     -40.7993 
         -50      16.8282 -0.000132143 -4.01795e-05     -40.7958 
         -50      17.0068 -0.000131246 -4.03166e-05     -40.7923 
         -50      17.1862 -0.000130598 -4.06228e-05     -40.7887 
         -50      17.3667 -0.000130122 -4.09839e-05     -40.7851 
         -50      17.5481 -0.000129762 -4.13306e-05     -40.7814 
         -50      17.7304  -0.00012948 -4.16297e-05     -40.7777 
         -50      17.9136  -0.00012925 -4.18748e-05     -40.7739 
         -50      18.0979 -0.000129057 -4.20778e-05     -40.7701 
         -50       18.283 -0.000128892 -4.22614e-05     -40.7662 
         -50      18.4691 -0.000128746 -4.24523e-05     -40.7623 
         -50      18.6561 -0.000128615 -4.26748e-05     -40.7583 
         -50      18.8441 -0.000128492 -4.29465e-05     -40.7543 
         -50       19.033 -0.000128366 -4.32739e-05     -40.7502 
         -50      19.2228 -0.000128224  -4.3651e-05     -40.7461 
         -50      19.4136 -0.000128051 -4.40577e-05     -40.7419 
         -50      19.6054 -0.000127831 -4.44615e-05     -40.7377 
         -50       19.798 -0.000127547 -4.48196e-05     -40.7335 
         -50      19.9917 -0.000127186 -4.50846e-05     -40.7292 
         -50      20.1862 -0.000126747 -4.52112e-05     -40.7248 
         -50      20.3818  -0.00012669 -4.51843e-05     -40.7204 
         -50      20.5782 -0.000126726 -4.54442e-05     -40.7159 
         -50      20.7756 -0.000126262  -4.6065e-05     -40.7114 
         -50       20.974 -0.000125141  -4.6963e-05     -40.7068 
         -50      21.1732   -0.0001232  -4.8012e-05     -40.7022 
         -50      21.3734 -0.000123461 -4.76272e-05     -40.6976 
         -50      21.5745 -0.000123717 -4.72332e-05     -40.6929 
         -50      21.7767 -0.000123456 -4.74569e-05     -40.6881 
         -50      21.9797 -0.000123263   -4.816e-05     -40.6833 
         -50      22.1837 -0.000123018 -4.80117e-05     -40.6784 
         -50      22.3886 -0.000122684 -4.77329e-05     -40.6735 
         -50      22.5945 -0.000122293 -4.74706e-05     -40.6685 
         -50      22.8013 -0.000121873 -4.73188e-05     -40.6635 
         -50      23.0091 -0.000121445 -4.73255e-05     -40.6585 
         -50      23.2177 -0.000121021 -4.75021e-05     -40.6534 
         -50      23.4274 -0.000120607 -4.78315e-05     -40.6482 
         -50       23.638 -0.000120205 -4.82755e-05      -40.643 
         -50      23.8495 -0.000119812 -4.87838e-05     -40.6377 
         -50       24.062 -0.000119423 -4.93016e-05     -40.6324 
         -50      24.2754 -0.000119036 -4.97763e-05      -40.627 
         -50      24.4897  -0.00011865 -5.01665e-05     -40.6216 
         -50       24.705 -0.000118276 -5.04474e-05     -40.6161 
         -50      24.9213 -0.000117938 -5.06182e-05     -40.6106 
         -50      25.1385  -0.00011768 -5.07074e-05     -40.6051 
         -50      25.3566 -0.000117573 -5.07789e-05     -40.5994 
         -50      25.5756 -0.000116685 -5.08214e-05     -40.5938 
         -50      25.7957 -0.000115727  -5.0651e-05     -40.5881 
         -50      26.0166 -0.000115227 -5.05895e-05     -40.5823 
         -50      26.2385 -0.000114965 -5.08033e-05     -40.5765 
         -50      26.4613 -0.000114788 -5.12641e-05     -40.5706 
         -50      26.6851 -0.000114604 -5.18079e-05     -40.5647 
         -50      26.9098 -0.000114369 -5.22299e-05     -40.5588 
         -50      27.1354 -0.000114089 -5.24217e-05     -40.5527 
         -50      27.3621  -0.00011383 -5.25501e-05     -40.5467 
         -50      27.5896 -0.000113649 -5.30606e-05     -40.5406 
         -50      27.8181 -0.000113272 -5.32206e-05     -40.5344 
         -50      28.0475 -0.000112885 -5.33276e-05     -40.5282 
         -50      28.2779 -0.000112484  -5.3411e-05      -40.522 
         -50      28.5092 -0.000112067 -5.34919e-05     -40.5157 
         -50      28.7414 -0.000111634 -5.35846e-05     -40.5093 
         -50      28.9746 -0.000111187 -5.36971e-05     -40.5029 
         -50      29.2088 -0.000110728 -5.38327e-05     -40.4965 
         -50      29.4439  -0.00011026 -5.39904e-05       -40.49 
         -50      29.6799 -0.000109785 -5.41669e-05     -40.4835 
         -50      29.9168 -0.000109309 -5.43566e-05     -40.4769 
         -50      30.1548 -0.000108833 -5.45529e-05     -40.4703 
         -50      30.3936 -0.000108362 -5.47487e-05     -40.4636 
         -50      30.6334 -0.000107897 -5.49376e-05     -40.4569 
         -50      30.8742 -0.000107442  -5.5114e-05     -40.4501 
         -50      31.1158 -0.000106997 -5.52735e-05     -40.4433 
         -50      31.3584 -0.000106564 -5.54139e-05     -40.4364 
         -50       31.602 -0.000106142 -5.55348e-05     -40.4295 
         -50      31.8465  -0.00010573 -5.56379e-05     -40.4226 
         -50      32.0919 -0.000105328 -5.57271e-05     -40.4156 
         -50      32.3383 -0.000104932 -5.58079e-05     -40.4086 
         -50      32.5856 -0.000104539 -5.58873e-05     -40.4015 
         -50       32.834 -0.000104147  -5.5973e-05     -40.3944 
         -50      33.0831 -0.000103751 -5.60725e-05     -40.3872 
         -50      33.3333 -0.000103349 -5.61924e-05       -40.38 
         -50      33.5843 -0.000102938 -5.63368e-05     -40.3728 
         -50      33.8364 -0.000102516 -5.65056e-05     -40.3655 
         -50      34.0894 -0.000102082 -5.66931e-05     -40.3582 
         -50      34.3433 -0.000101639 -5.68855e-05     -40.3508 
         -50      34.5981 -0.000101191 -5.70587e-05     -40.3434 
         -50       34.854 -0.000100745 -5.71757e-05     -40.3359 
         -50      35.1107 -0.000100454  -5.7079e-05     -40.3284 
         -50      35.3684 -0.000100237 -5.73301e-05     -40.3209 
         -50      35.6271 -9.98641e-05 -5.77002e-05     -40.3133 
         -50      35.8867 -9.91859e-05 -5.76588e-05     -40.3057 
         -50      36.1472 -9.84836e-05 -5.76142e-05     -40.2981 
         -50      36.4086 -9.77478e-05 -5.75609e-05     -40.2904 
         -50      36.6711 -9.69739e-05 -5.74961e-05     -40.2827 
         -50      36.9344 -9.63824e-05 -5.73905e-05     -40.2749 
         -50      37.1987 -9.61574e-05  -5.7235e-05     -40.2671 
         -50      37.4639 -9.59367e-05 -5.70935e-05     -40.2593 
         -50      37.7301 -9.57071e-05 -5.69764e-05     -40.2514 
         -50      37.9972 -9.54592e-05 -5.68904e-05     -40.2435 
         -50      38.2652  -9.5186e-05 -5.68382e-05     -40.2356 
         -50      38.5342 -9.48835e-05 -5.68195e-05     -40.2276 
         -50      38.8042 -9.45496e-05 -5.68318e-05     -40.2196 
         -50      39.0751 -9.41846e-05 -5.68707e-05     -40.2116 
         -50      39.3469   -9.379e-05 -5.69308e-05     -40.2035 
         -50      39.6197 -9.33685e-05 -5.70058e-05     -40.1954 
         -50      39.8934 -9.29243e-05 -5.70891e-05     -40.1872 
         -50       40.168 -9.24616e-05 -5.71743e-05     -40.1791 
         -50      40.4436 -9.19855e-05 -5.72556e-05     -40.1709 
         -50      40.7202 -9.15007e-05 -5.73278e-05     -40.1626 
         -50      40.9977 -9.10126e-05 -5.73867e-05     -40.1544 
         -50      41.2761 -9.05256e-05 -5.74291e-05     -40.1461 
         -50      41.5554  -9.0044e-05 -5.74531e-05     -40.1377 
         -50      41.8358  -8.9571e-05 -5.74578e-05     -40.1294 
         -50       42.117 -8.91101e-05  -5.7443e-05      -40.121 
         -50      42.3992 -8.86629e-05 -5.74097e-05     -40.1126 
         -50      42.6823 -8.82307e-05 -5.73587e-05     -40.1042 
         -50      42.9664 -8.78137e-05 -5.72912e-05     -40.0957 
         -50      43.2514 -8.74116e-05 -5.72074e-05     -40.0872 
         -50      43.5373 -8.70232e-05 -5.71062e-05     -40.0787 
         -50      43.8243 -8.66462e-05 -5.69841e-05     -40.0701 
         -50      44.1121 -8.62789e-05 -5.68347e-05     -40.0616 
         -50      44.4009 -8.57875e-05 -5.67017e-05      -40.053 
         -50      44.6906 -8.52252e-05 -5.66456e-05     -40.0443 
         -50      44.9813 -8.47275e-05 -5.66202e-05     -40.0357 
         -50      45.2729 -8.42883e-05  -5.6606e-05      -40.027 
         -50      45.5654 -8.38976e-05  -5.6585e-05     -40.0183 
         -50      45.8589 -8.35432e-05 -5.65413e-05     -40.0096 
         -50      46.1534 -8.32122e-05 -5.64611e-05     -40.0009 
         -50      46.4488 -8.28927e-05 -5.63334e-05     -39.9921 
         -50      46.7451 -8.25751e-05 -5.61501e-05     -39.9834 
         -50      47.0423 -8.22546e-05 -5.59066e-05     -39.9746 
         -50      47.3406 -8.18905e-05 -5.56959e-05     -39.9657 
         -50      47.6397 -8.13467e-05 -5.58768e-05     -39.9569 
         -50      47.9398 -8.08469e-05 -5.59918e-05     -39.9481 
         -50      48.2409 -8.03853e-05 -5.60489e-05     -39.9392 
         -50      48.5428 -7.99564e-05 -5.60571e-05     -39.9303 
         -50      48.8457  -7.9554e-05 -5.60254e-05     -39.9214 
         -50      49.1496 -7.91717e-05 -5.59628e-05     -39.9125 
         -50      49.4545 -7.88037e-05 -5.58777e-05     -39.9035 
         -50      49.7602 -7.84444e-05 -5.57772e-05     -39.8946 
         -50      50.0668 -7.80887e-05 -5.56676e-05     -39.8856 
         -50      50.3744 -7.77318e-05 -5.55535e-05     -39.8766 
         -50      50.6831 -7.73699e-05 -5.54379e-05     -39.8676 
         -50      50.9926 -7.70003e-05 -5.53226e-05     -39.8586 
         -50       51.303 -7.66209e-05 -5.52076e-05     -39.8496 
         -50      51.6144 -7.62308e-05 -5.50918e-05     -39.8405 
         -50      51.9268 -7.58301e-05 -5.49731e-05     -39.8315 
         -50        52.24 -7.54206e-05 -5.48491e-05     -39.8224 
         -50      52.5542 -7.50046e-05 -5.47169e-05     -39.8134 
         -50      52.8694 -7.45862e-05 -5.45749e-05     -39.8043 
         -50      53.1856 -7.41702e-05 -5.44223e-05     -39.7952 
         -50      53.5026 -7.37634e-05 -5.42615e-05     -39.7861 
         -50      53.8205 -7.33731e-05 -5.40979e-05      -39.777 
         -50      54.1396 -7.30077e-05 -5.39418e-05     -39.7679 
         -50      54.4594  -7.2677e-05 -5.38101e-05     -39.7587 
         -50      54.7802 -7.23913e-05 -5.37273e-05     -39.7496 
         -50      55.1019 -7.19386e-05 -5.35376e-05     -39.7405 
         -50      55.4247 -7.15013e-05 -5.33496e-05     -39.7313 
         -50      55.7483 -7.11047e-05 -5.31852e-05     -39.7222 
         -50      56.0729 -7.07365e-05 -5.30387e-05      -39.713 
         -50      56.3984 -7.03864e-05 -5.29052e-05     -39.7038 
         -50       56.725 -7.00459e-05  -5.2781e-05     -39.6947 
         -50      57.0523 -6.97085e-05  -5.2663e-05     -39.6855 
         -50      57.3807  -6.9369e-05 -5.25484e-05     -39.6763 
         -50      57.7099 -6.90241e-05 -5.24353e-05     -39.6672 
         -50      58.0403 -6.86714e-05 -5.23218e-05      -39.658 
         -50      58.3714 -6.83107e-05 -5.22066e-05     -39.6488 
         -50      58.7035 -6.79422e-05 -5.20885e-05     -39.6396 
         -50      59.0367 -6.75673e-05 -5.19663e-05     -39.6304 
         -50      59.3707 -6.71886e-05 -5.18392e-05     -39.6213 
         -50      59.7056  -6.6809e-05 -5.17064e-05     -39.6121 
         -50      60.0414  -6.6432e-05 -5.15671e-05     -39.6029 
         -50      60.3784  -6.6061e-05 -5.14206e-05     -39.5937 
         -50      60.7161    -6.57e-05 -5.12664e-05     -39.5845 
         -50      61.0548 -6.53521e-05 -5.11043e-05     -39.5754 
         -50      61.3944 -6.50201e-05 -5.09339e-05     -39.5662 
         -50      61.7351 -6.47058e-05 -5.07555e-05      -39.557 
         -50      62.0767 -6.44099e-05 -5.05698e-05     -39.5479 
         -50      62.4191 -6.41313e-05 -5.03779e-05     -39.5387 
         -50      62.7625 -6.38671e-05 -5.01816e-05     -39.5296 
         -50       63.107 -6.36117e-05 -4.99839e-05     -39.5204 
         -50      63.4523 -6.33573e-05 -4.97888e-05     -39.5113 
         -50      63.7985 -6.30921e-05 -4.96017e-05     -39.5021 
         -50      64.1458 -6.24899e-05 -4.97315e-05      -39.493 
         -50      64.4939 -6.19853e-05 -4.97426e-05     -39.4839 
         -50       64.843  -6.1584e-05 -4.96564e-05     -39.4748 
         -50      65.1929 -6.12745e-05 -4.94995e-05     -39.4657 
         -50       65.544 -6.10315e-05 -4.92965e-05     -39.4566 
         -50      65.8959 -6.08153e-05 -4.90681e-05     -39.4475 
         -50      66.2487 -6.05704e-05 -4.88277e-05     -39.4384 
         -50      66.6025 -6.02274e-05 -4.85728e-05     -39.4293 
         -50      66.9573 -5.99065e-05 -4.81064e-05     -39.4203 
         -50       67.313 -5.95576e-05 -4.77183e-05     -39.4112 
         -50      67.6695 -5.91927e-05    -4.74e-05     -39.4022 
         -50      68.0271 -5.88266e-05 -4.71489e-05     -39.3932 
         -50      68.3857 -5.84772e-05 -4.69676e-05     -39.3842 
         -50      68.7451 -5.81654e-05 -4.68632e-05     -39.3752 
         -50      69.1055  -5.7914e-05 -4.68467e-05     -39.3662 
         -50      69.4669 -5.77486e-05 -4.69327e-05     -39.3572 
         -50      69.8291 -5.76404e-05 -4.70129e-05     -39.3483 
         -50      70.1923 -5.73501e-05  -4.6675e-05     -39.3393 
         -50      70.5564 -5.70345e-05 -4.63448e-05     -39.3304 
         -50      70.9217 -5.67044e-05 -4.60277e-05     -39.3215 
         -50      71.2877 -5.63692e-05 -4.57273e-05     -39.3126 
         -50      71.6546 -5.60361e-05 -4.54456e-05     -39.3037 
         -50      72.0225 -5.57109e-05 -4.51833e-05     -39.2949 
         -50      72.3915 -5.53977e-05 -4.49398e-05      -39.286 
         -50      72.7613 -5.50995e-05 -4.47141e-05     -39.2772 
         -50       73.132 -5.48174e-05  -4.4504e-05     -39.2684 
         -50      73.5036 -5.45516e-05 -4.43068e-05     -39.2596 
         -50      73.8764 -5.43009e-05 -4.41195e-05     -39.2508 
         -50      74.2499 -5.40636e-05  -4.3939e-05     -39.2421 
         -50      74.6244 -5.38369e-05  -4.3762e-05     -39.2334 
         -50           75 -5.36173e-05 -4.35853e-05     -39.2247 
         -25            0 -1.19997e-19 -6.44345e-24     -39.3281 
         -25     0.000471 -1.17403e-05 -6.53025e-10     -39.3281 
         -25     0.001884 -4.16352e-05 -2.58149e-09     -39.3281 
         -25     0.004239 -7.64934e-05 -5.73329e-09     -39.3281 
         -25     0.007537  -0.00010222 -1.01356e-08     -39.3281 
         -25     0.011776 -0.000111298 -1.59974e-08     -39.3281 
         -25     0.016958 -0.000106611 -2.37734e-08     -39.3281 
         -25     0.023081 -9.87406e-05 -3.41139e-08     -39.3281 
         -25      0.03015 -9.76469e-05 -4.77562e-08     -39.3281 
         -25     0.038157 -0.000103964 -6.53396e-08     -39.3281 
         -25     0.047107 -0.000108063 -8.73941e-08     -39.3281 
         -25     0.056999 -0.000102384 -1.14393e-07     -39.3281 
         -25     0.067837 -9.84231e-05 -1.46895e-07     -39.3281 
         -25     0.079614 -0.000106191 -1.85043e-07     -39.3281 
         -25     0.092332 -0.000100123 -2.28838e-07     -39.3281 
         -25     0.105992 -0.000100134 -2.78876e-07     -39.3281 
         -25       0.1206 -9.88922e-05 -3.34741e-07     -39.3281 
         -25     0.136145 -9.77147e-05 -3.96186e-07     -39.3281 
         -25     0.152631 -9.69681e-05 -4.62934e-07     -39.3281 
         -25     0.170067 -9.63763e-05 -5.34599e-07     -39.3281 
         -25     0.188438 -9.55846e-05 -6.10513e-07     -39.3281 
         -25     0.207751 -9.47076e-05 -6.89939e-07     -39.3281 
         -25     0.228006 -9.43026e-05 -7.72138e-07     -39.3281 
         -25     0.249212 -9.37974e-05 -8.56967e-07     -39.3281 
         -25     0.271351 -9.35247e-05 -9.43113e-07     -39.3281 
         -25     0.294433 -9.33412e-05 -1.02848e-06     -39.3281 
         -25     0.318456  -9.3229e-05 -1.11299e-06     -39.3281 
         -25     0.343432 -9.32128e-05 -1.19637e-06      -39.328 
         -25     0.369339 -9.32988e-05 -1.27817e-06      -39.328 
         -25     0.396189 -9.34786e-05 -1.35821e-06      -39.328 
         -25     0.423981 -9.37348e-05 -1.43658e-06      -39.328 
         -25     0.452726 -9.40481e-05 -1.51381e-06      -39.328 
         -25     0.482403 -9.44033e-05 -1.59068e-06      -39.328 
         -25     0.513021 -9.47938e-05 -1.66786e-06      -39.328 
         -25     0.544594 -9.52193e-05 -1.74482e-06      -39.328 
         -25     0.577096 -9.56725e-05 -1.81785e-06      -39.328 
         -25     0.610541 -9.61132e-05 -1.87662e-06      -39.328 
         -25     0.644927 -9.65666e-05 -1.91864e-06      -39.328 
         -25      0.68027  -9.7012e-05 -1.96753e-06      -39.328 
         -25     0.716541  -9.7446e-05 -2.01988e-06     -39.3279 
         -25     0.753754 -9.78672e-05  -2.0734e-06     -39.3279 
         -25     0.791909 -9.82751e-05 -2.12671e-06     -39.3279 
         -25     0.831022 -9.86707e-05 -2.17934e-06     -39.3279 
         -25     0.871061 -9.90552e-05 -2.23139e-06     -39.3279 
         -25     0.912043 -9.94313e-05 -2.28345e-06     -39.3279 
         -25     0.953966 -9.98022e-05 -2.33624e-06     -39.3279 
         -25     0.996849 -0.000100171 -2.39034e-06     -39.3278 
         -25      1.04066 -0.000100542 -2.44582e-06     -39.3278 
         -25      1.08541 -0.000100918 -2.50221e-06     -39.3278 
         -25      1.13112 -0.000101301 -2.55827e-06     -39.3278 
         -25      1.17775 -0.000101695 -2.61201e-06     -39.3277 
         -25      1.22533   -0.0001021 -2.66119e-06     -39.3277 
         -25      1.27384 -0.000102518 -2.70388e-06     -39.3277 