Variables = x, y, u, v, p

Zone, I=6400, F=POINT
         -50            0            0            0       64.213 
         -50     0.000471  9.36448e-06  2.22726e-09       64.213 
         -50     0.001884  3.32898e-05   8.2713e-09       64.213 
         -50     0.004239  6.14363e-05   1.6481e-08       64.213 
         -50     0.007537  8.27048e-05  2.48598e-08       64.213 
         -50     0.011776  9.10567e-05  3.18104e-08       64.213 
         -50     0.016958  8.85162e-05  3.66186e-08       64.213 
         -50     0.023081  8.31125e-05  3.93611e-08       64.213 
         -50      0.03015  8.24908e-05  4.03246e-08       64.213 
         -50     0.038157  8.72202e-05   3.9287e-08       64.213 
         -50     0.047107  9.01028e-05  3.53013e-08       64.213 
         -50     0.056999  8.56665e-05  2.73389e-08       64.213 
         -50     0.067837  8.30068e-05  1.49512e-08       64.213 
         -50     0.079614   8.8967e-05 -4.72113e-09       64.213 
         -50     0.092332  8.44125e-05 -3.40154e-08       64.213 
         -50     0.105992  8.49642e-05 -7.09032e-08       64.213 
         -50       0.1206  8.44362e-05 -1.18251e-07       64.213 
         -50     0.136145  8.41308e-05 -1.76037e-07       64.213 
         -50     0.152631  8.43598e-05 -2.43488e-07       64.213 
         -50     0.170067  8.47735e-05 -3.18688e-07       64.213 
         -50     0.188438  8.49571e-05 -3.98016e-07       64.213 
         -50     0.207751  8.50051e-05 -4.75952e-07       64.213 
         -50     0.228006  8.54772e-05 -5.44712e-07       64.213 
         -50     0.249212  8.57162e-05 -5.94441e-07       64.213 
         -50     0.271351  8.61001e-05 -6.19104e-07      64.2129 
         -50     0.294433  8.64393e-05 -6.09808e-07      64.2129 
         -50     0.318456  8.67101e-05 -5.67532e-07      64.2129 
         -50     0.343432  8.69408e-05 -5.11141e-07      64.2129 
         -50     0.369339  8.71432e-05 -4.72454e-07      64.2129 
         -50     0.396189   8.7317e-05 -4.88353e-07      64.2129 
         -50     0.423981   8.7453e-05 -5.91201e-07      64.2128 
         -50     0.452726  8.75393e-05 -7.98598e-07      64.2128 
         -50     0.482403  8.75672e-05 -1.10434e-06      64.2128 
         -50     0.513021  8.75351e-05 -1.47504e-06      64.2127 
         -50     0.544594  8.74475e-05 -1.85577e-06      64.2127 
         -50     0.577096  8.73066e-05 -2.19068e-06      64.2127 
         -50     0.610541   8.7092e-05 -2.46384e-06      64.2126 
         -50     0.644927  8.68532e-05 -2.60886e-06      64.2126 
         -50      0.68027   8.6566e-05  -2.7305e-06      64.2125 
         -50     0.716541  8.62585e-05 -2.83508e-06      64.2125 
         -50     0.753754  8.59534e-05 -2.92872e-06      64.2124 
         -50     0.791909  8.56678e-05 -3.01694e-06      64.2124 
         -50     0.831022  8.54135e-05 -3.10454e-06      64.2123 
         -50     0.871061  8.51979e-05 -3.19531e-06      64.2122 
         -50     0.912043  8.50246e-05 -3.29199e-06      64.2121 
         -50     0.953966  8.48948e-05 -3.39605e-06      64.2121 
         -50     0.996849  8.48084e-05 -3.50766e-06       64.212 
         -50      1.04066  8.47658e-05 -3.62546e-06      64.2119 
         -50      1.08541   8.4769e-05 -3.74682e-06      64.2118 
         -50      1.13112  8.48227e-05  -3.8678e-06      64.2117 
         -50      1.17775  8.49345e-05  -3.9832e-06      64.2116 
         -50      1.22533  8.51148e-05 -4.08711e-06      64.2114 
         -50      1.27384  8.53746e-05 -4.17312e-06      64.2113 
         -50      1.32333  8.57226e-05 -4.23498e-06      64.2112 
         -50      1.37373  8.61581e-05 -4.26717e-06       64.211 
         -50      1.42507  8.66628e-05 -4.26598e-06      64.2109 
         -50      1.47736  8.71877e-05 -4.23051e-06      64.2107 
         -50      1.53061  8.79114e-05  -4.1324e-06      64.2106 
         -50      1.58478  8.89145e-05 -4.04692e-06      64.2104 
         -50      1.63989  8.98723e-05 -4.02127e-06      64.2102 
         -50      1.69595  9.07601e-05 -4.03142e-06        64.21 
         -50      1.75297  9.15613e-05 -4.05506e-06      64.2098 
         -50      1.81091   9.2266e-05 -4.07181e-06      64.2096 
         -50      1.86979  9.28722e-05 -4.06365e-06      64.2094 
         -50      1.92964  9.33841e-05 -4.01509e-06      64.2091 
         -50       1.9904  9.38107e-05 -3.91354e-06      64.2089 
         -50      2.05211  9.41662e-05 -3.74936e-06      64.2086 
         -50      2.11476  9.44677e-05 -3.51612e-06      64.2083 
         -50      2.17838  9.47345e-05 -3.21057e-06      64.2081 
         -50      2.24291  9.49856e-05 -2.83318e-06      64.2078 
         -50      2.30839  9.52394e-05 -2.38741e-06      64.2075 
         -50       2.3748  9.55115e-05  -1.8801e-06      64.2071 
         -50      2.44219  9.58132e-05 -1.32098e-06      64.2068 
         -50      2.51049    9.615e-05 -7.23301e-07      64.2064 
         -50      2.57974  9.65206e-05 -1.02133e-07      64.2061 
         -50      2.64993  9.69161e-05  5.25147e-07      64.2057 
         -50      2.72108  9.73192e-05  1.13995e-06      64.2053 
         -50      2.79315  9.77041e-05  1.72214e-06      64.2049 
         -50      2.86617  9.80376e-05  2.25237e-06      64.2045 
         -50      2.94012  9.82807e-05  2.71204e-06       64.204 
         -50      3.01505  9.83908e-05  3.08479e-06      64.2035 
         -50      3.09089  9.83262e-05  3.35726e-06      64.2031 
         -50      3.16767  9.80508e-05  3.52139e-06      64.2026 
         -50      3.24542  9.75417e-05  3.57549e-06      64.2021 
         -50      3.32409  9.67989e-05  3.52614e-06      64.2015 
         -50       3.4037  9.58556e-05  3.39038e-06       64.201 
         -50      3.48425  9.47937e-05  3.19781e-06      64.2004 
         -50      3.56577    9.376e-05  2.99306e-06      64.1998 
         -50       3.6482  9.29893e-05  2.83879e-06      64.1992 
         -50      3.73158  9.28267e-05  2.81813e-06      64.1985 
         -50       3.8159  9.21184e-05   3.2674e-06      64.1979 
         -50      3.90119  9.17607e-05  3.33581e-06      64.1972 
         -50       3.9874  9.11559e-05  3.56495e-06      64.1965 
         -50      4.07454  9.05751e-05  3.72846e-06      64.1958 
         -50      4.16263   9.0149e-05  3.87405e-06       64.195 
         -50      4.25169  8.98481e-05  4.07289e-06      64.1942 
         -50      4.34166  8.96368e-05  4.36364e-06      64.1935 
         -50      4.43258   8.9479e-05  4.75602e-06      64.1926 
         -50      4.52447  8.93432e-05  5.23469e-06      64.1918 
         -50      4.61726  8.92078e-05  5.76333e-06      64.1909 
         -50        4.711  8.90628e-05  6.29147e-06        64.19 
         -50      4.80569  8.89114e-05  6.76053e-06      64.1891 
         -50      4.90135  8.87695e-05  7.11175e-06      64.1881 
         -50      4.99791  8.86613e-05  7.29449e-06      64.1871 
         -50      5.09542  8.86134e-05  7.27703e-06      64.1861 
         -50      5.19387  8.86438e-05  7.05704e-06      64.1851 
         -50       5.2933  8.87475e-05  6.67398e-06       64.184 
         -50      5.39364   8.8877e-05  6.22347e-06      64.1829 
         -50      5.49491  8.89165e-05   5.8713e-06      64.1818 
         -50      5.59713  8.86511e-05  5.87056e-06      64.1806 
         -50      5.70033  8.86643e-05   5.6116e-06      64.1794 
         -50      5.80443  8.86322e-05  5.49253e-06      64.1782 
         -50      5.90948  8.81903e-05  5.71476e-06      64.1769 
         -50      6.01551  8.76902e-05  5.88512e-06      64.1756 
         -50      6.12244  8.73186e-05  5.93216e-06      64.1743 
         -50      6.23031  8.71283e-05  5.97688e-06       64.173 
         -50      6.33912  8.70767e-05  6.19309e-06      64.1716 
         -50      6.44892  8.70695e-05  6.65957e-06      64.1701 
         -50      6.55962  8.70091e-05  7.20294e-06      64.1687 
         -50      6.67126  8.68503e-05  7.23538e-06      64.1672 
         -50      6.78384  8.64876e-05  7.25349e-06      64.1656 
         -50      6.89741  8.61748e-05  8.16558e-06       64.164 
         -50      7.01187  8.61178e-05  8.48928e-06      64.1624 
         -50      7.12728  8.62098e-05  8.45712e-06      64.1608 
         -50      7.24363  8.63695e-05  8.26159e-06      64.1591 
         -50      7.36097  8.65337e-05  8.05105e-06      64.1573 
         -50       7.4792  8.66506e-05  7.92786e-06      64.1555 
         -50      7.59838  8.66752e-05  7.94843e-06      64.1537 
         -50      7.71854  8.65653e-05  8.12769e-06      64.1519 
         -50       7.8396  8.62795e-05  8.44638e-06        64.15 
         -50      7.96161  8.57771e-05  8.86362e-06       64.148 
         -50      8.08455  8.53184e-05  9.23647e-06       64.146 
         -50      8.20849  8.57747e-05  9.27949e-06       64.144 
         -50      8.33332   8.5908e-05  9.38907e-06      64.1419 
         -50      8.45909  8.58117e-05  9.54171e-06      64.1398 
         -50       8.5858    8.558e-05  9.74456e-06      64.1376 
         -50      8.71351  8.52977e-05  1.00156e-05      64.1354 
         -50       8.8421  8.50367e-05  1.03693e-05      64.1331 
         -50      8.97164   8.4858e-05  1.08109e-05      64.1308 
         -50      9.10212  8.48217e-05  1.13372e-05      64.1284 
         -50       9.2336  8.50064e-05  1.19494e-05       64.126 
         -50      9.36596   8.5382e-05  1.25169e-05      64.1236 
         -50      9.49927   8.4837e-05  1.20141e-05      64.1211 
         -50      9.63352  8.44313e-05  1.16335e-05      64.1185 
         -50      9.76877  8.41706e-05   1.1362e-05      64.1159 
         -50       9.9049  8.40374e-05   1.1181e-05      64.1132 
         -50       10.042  8.39987e-05  1.10689e-05      64.1105 
         -50      10.1801  8.40129e-05   1.1004e-05      64.1077 
         -50       10.319  8.40365e-05  1.09665e-05      64.1049 
         -50      10.4589  8.40302e-05  1.09409e-05       64.102 
         -50      10.5998  8.39634e-05  1.09174e-05      64.0991 
         -50      10.7416  8.38182e-05  1.08926e-05      64.0961 
         -50      10.8843   8.3592e-05  1.08705e-05      64.0931 
         -50       11.028  8.32985e-05  1.08623e-05        64.09 
         -50      11.1726  8.29665e-05  1.08848e-05      64.0868 
         -50      11.3182  8.26377e-05  1.09595e-05      64.0836 
         -50      11.4647  8.23616e-05  1.11091e-05      64.0803 
         -50      11.6122  8.21874e-05   1.1354e-05       64.077 
         -50      11.7605   8.2154e-05  1.17069e-05      64.0736 
         -50      11.9099  8.22766e-05  1.21672e-05      64.0702 
         -50      12.0602  8.25289e-05  1.27116e-05      64.0667 
         -50      12.2114   8.2823e-05   1.3286e-05      64.0631 
         -50      12.3636  8.29837e-05  1.37936e-05      64.0595 
         -50      12.5167  8.27187e-05  1.40812e-05      64.0558 
         -50      12.6707   8.2289e-05   1.4513e-05       64.052 
         -50      12.8257  8.24446e-05  1.49063e-05      64.0482 
         -50      12.9817  8.19167e-05  1.49685e-05      64.0443 
         -50      13.1386  8.16106e-05  1.46461e-05      64.0404 
         -50      13.2964  8.14281e-05   1.4482e-05      64.0364 
         -50      13.4551  8.13388e-05  1.44503e-05      64.0323 
         -50      13.6149  8.13136e-05  1.45199e-05      64.0282 
         -50      13.7755   8.1326e-05  1.46577e-05       64.024 
         -50      13.9371   8.1352e-05  1.48323e-05      64.0197 
         -50      14.0996  8.13715e-05  1.50157e-05      64.0154 
         -50      14.2631  8.13682e-05  1.51862e-05       64.011 
         -50      14.4275  8.13303e-05  1.53295e-05      64.0065 
         -50      14.5928  8.12509e-05    1.544e-05       64.002 
         -50      14.7592  8.11274e-05  1.55213e-05      63.9974 
         -50      14.9264  8.09625e-05   1.5585e-05      63.9927 
         -50      15.0946  8.07631e-05    1.565e-05      63.9879 
         -50      15.2637  8.05402e-05  1.57397e-05      63.9831 
         -50      15.4338  8.03079e-05  1.58786e-05      63.9782 
         -50      15.6048  8.00832e-05  1.60875e-05      63.9733 
         -50      15.7767  7.98839e-05  1.63776e-05      63.9683 
         -50      15.9496  7.97277e-05  1.67428e-05      63.9632 
         -50      16.1235    7.963e-05  1.71512e-05       63.958 
         -50      16.2982  7.96018e-05  1.75327e-05      63.9527 
         -50      16.4739  7.96473e-05  1.77683e-05      63.9474 
         -50      16.6506  7.97605e-05  1.76741e-05      63.9421 
         -50      16.8282  7.95908e-05  1.78656e-05      63.9366 
         -50      17.0068  7.93496e-05  1.82515e-05      63.9311 
         -50      17.1862  7.91453e-05  1.86386e-05      63.9255 
         -50      17.3667  7.89751e-05  1.90231e-05      63.9198 
         -50      17.5481  7.88305e-05  1.94005e-05       63.914 
         -50      17.7304  7.86998e-05  1.97659e-05      63.9082 
         -50      17.9136  7.85705e-05  2.01135e-05      63.9023 
         -50      18.0979  7.84311e-05  2.04367e-05      63.8963 
         -50       18.283   7.8273e-05  2.07279e-05      63.8903 
         -50      18.4691  7.80915e-05  2.09793e-05      63.8841 
         -50      18.6561  7.78862e-05  2.11833e-05      63.8779 
         -50      18.8441  7.76613e-05  2.13329e-05      63.8716 
         -50       19.033  7.74253e-05  2.14226e-05      63.8653 
         -50      19.2228  7.71894e-05    2.145e-05      63.8588 
         -50      19.4136  7.69656e-05  2.14169e-05      63.8523 
         -50      19.6054  7.67638e-05   2.1331e-05      63.8457 
         -50       19.798  7.65887e-05  2.12081e-05      63.8391 
         -50      19.9917  7.64339e-05  2.10741e-05      63.8323 
         -50      20.1862  7.62774e-05  2.09682e-05      63.8255 
         -50      20.3818  7.60149e-05  2.12643e-05      63.8186 
         -50      20.5782  7.56898e-05  2.18939e-05      63.8116 
         -50      20.7756  7.53798e-05  2.24526e-05      63.8046 
         -50       20.974  7.50936e-05  2.27916e-05      63.7974 
         -50      21.1732  7.48412e-05  2.27356e-05      63.7902 
         -50      21.3734  7.52442e-05  2.27325e-05      63.7829 
         -50      21.5745  7.51055e-05  2.31012e-05      63.7756 
         -50      21.7767  7.47364e-05  2.36492e-05      63.7681 
         -50      21.9797  7.47463e-05  2.43361e-05      63.7606 
         -50      22.1837  7.47634e-05  2.45031e-05       63.753 
         -50      22.3886  7.45865e-05  2.49001e-05      63.7453 
         -50      22.5945  7.42763e-05  2.54115e-05      63.7375 
         -50      22.8013  7.39056e-05  2.59307e-05      63.7297 
         -50      23.0091  7.35431e-05  2.63743e-05      63.7218 
         -50      23.2177  7.32417e-05  2.66901e-05      63.7138 
         -50      23.4274  7.30298e-05  2.68622e-05      63.7057 
         -50       23.638  7.29074e-05  2.69103e-05      63.6975 
         -50      23.8495  7.28463e-05  2.68851e-05      63.6893 
         -50       24.062  7.27957e-05  2.68564e-05       63.681 
         -50      24.2754   7.2693e-05  2.68966e-05      63.6726 
         -50      24.4897  7.24813e-05  2.70557e-05      63.6641 
         -50       24.705  7.21328e-05  2.73303e-05      63.6556 
         -50      24.9213  7.16793e-05  2.76246e-05       63.647 
         -50      25.1385  7.12515e-05  2.77013e-05      63.6383 
         -50      25.3566  7.11245e-05   2.7126e-05      63.6295 
         -50      25.5756   7.1099e-05  2.68958e-05      63.6206 
         -50      25.7957  7.08364e-05  2.72115e-05      63.6117 
         -50      26.0166  7.05863e-05  2.73187e-05      63.6027 
         -50      26.2385  7.03709e-05  2.73222e-05      63.5936 
         -50      26.4613  7.02069e-05    2.731e-05      63.5844 
         -50      26.6851  7.00868e-05   2.7354e-05      63.5752 
         -50      26.9098  6.99682e-05   2.7506e-05      63.5658 
         -50      27.1354  6.97738e-05  2.77883e-05      63.5564 
         -50      27.3621  6.94013e-05  2.81788e-05       63.547 
         -50      27.5896  6.88392e-05  2.85204e-05      63.5374 
         -50      27.8181  6.85333e-05  2.85914e-05      63.5278 
         -50      28.0475  6.82944e-05  2.86705e-05      63.5181 
         -50      28.2779  6.81035e-05   2.8758e-05      63.5083 
         -50      28.5092  6.79437e-05  2.88532e-05      63.4985 
         -50      28.7414  6.78009e-05  2.89549e-05      63.4885 
         -50      28.9746  6.76629e-05   2.9062e-05      63.4785 
         -50      29.2088    6.752e-05  2.91729e-05      63.4685 
         -50      29.4439  6.73649e-05  2.92864e-05      63.4583 
         -50      29.6799  6.71919e-05  2.94011e-05      63.4481 
         -50      29.9168  6.69975e-05  2.95163e-05      63.4378 
         -50      30.1548  6.67799e-05  2.96313e-05      63.4274 
         -50      30.3936  6.65391e-05   2.9746e-05       63.417 
         -50      30.6334  6.62764e-05  2.98607e-05      63.4065 
         -50      30.8742  6.59945e-05  2.99761e-05      63.3959 
         -50      31.1158   6.5697e-05  3.00931e-05      63.3853 
         -50      31.3584  6.53885e-05  3.02133e-05      63.3746 
         -50       31.602   6.5074e-05  3.03379e-05      63.3638 
         -50      31.8465  6.47586e-05  3.04685e-05      63.3529 
         -50      32.0919   6.4448e-05   3.0606e-05       63.342 
         -50      32.3383  6.41468e-05  3.07511e-05       63.331 
         -50      32.5856  6.38592e-05  3.09033e-05      63.3199 
         -50       32.834  6.35882e-05  3.10612e-05      63.3088 
         -50      33.0831  6.33354e-05  3.12211e-05      63.2976 
         -50      33.3333  6.31004e-05  3.13775e-05      63.2863 
         -50      33.5843  6.28799e-05  3.15215e-05       63.275 
         -50      33.8364  6.26682e-05  3.16411e-05      63.2636 
         -50      34.0894  6.24557e-05  3.17197e-05      63.2521 
         -50      34.3433   6.2229e-05  3.17355e-05      63.2406 
         -50      34.5981  6.19696e-05  3.16606e-05       63.229 
         -50       34.854  6.16537e-05  3.14599e-05      63.2174 
         -50      35.1107  6.14122e-05  3.19002e-05      63.2057 
         -50      35.3684  6.11361e-05  3.24749e-05      63.1939 
         -50      35.6271  6.08287e-05  3.27582e-05      63.1821 
         -50      35.8867   6.0563e-05  3.26426e-05      63.1702 
         -50      36.1472  6.01914e-05   3.2565e-05      63.1582 
         -50      36.4086  5.97194e-05  3.25183e-05      63.1462 
         -50      36.6711  5.91567e-05  3.24962e-05      63.1341 
         -50      36.9344  5.87206e-05  3.25507e-05       63.122 
         -50      37.1987   5.8605e-05  3.26621e-05      63.1098 
         -50      37.4639  5.84857e-05  3.27246e-05      63.0975 
         -50      37.7301  5.83544e-05  3.27559e-05      63.0852 
         -50      37.9972  5.82057e-05  3.27697e-05      63.0729 
         -50      38.2652  5.80361e-05  3.27767e-05      63.0604 
         -50      38.5342  5.78442e-05  3.27845e-05       63.048 
         -50      38.8042  5.76301e-05  3.27987e-05      63.0355 
         -50      39.0751  5.73954e-05  3.28225e-05      63.0229 
         -50      39.3469  5.71424e-05   3.2858e-05      63.0103 
         -50      39.6197  5.68742e-05  3.29056e-05      62.9976 
         -50      39.8934  5.65945e-05   3.2965e-05      62.9848 
         -50       40.168  5.63071e-05  3.30349e-05      62.9721 
         -50      40.4436  5.60159e-05  3.31136e-05      62.9592 
         -50      40.7202  5.57242e-05   3.3199e-05      62.9463 
         -50      40.9977  5.54359e-05  3.32883e-05      62.9334 
         -50      41.2761  5.51535e-05  3.33785e-05      62.9204 
         -50      41.5554  5.48795e-05   3.3466e-05      62.9074 
         -50      41.8358  5.46155e-05  3.35468e-05      62.8944 
         -50       42.117  5.43631e-05  3.36155e-05      62.8812 
         -50      42.3992  5.41226e-05  3.36658e-05      62.8681 
         -50      42.6823  5.38944e-05  3.36898e-05      62.8549 
         -50      42.9664  5.36781e-05  3.36771e-05      62.8417 
         -50      43.2514  5.34738e-05  3.36147e-05      62.8284 
         -50      43.5373   5.3281e-05  3.34861e-05       62.815 
         -50      43.8243  5.30999e-05    3.327e-05      62.8017 
         -50      44.1121  5.29315e-05  3.29401e-05      62.7883 
         -50      44.4009  5.26663e-05  3.28941e-05      62.7748 
         -50      44.6906  5.23137e-05  3.31403e-05      62.7614 
         -50      44.9813  5.19899e-05  3.32873e-05      62.7478 
         -50      45.2729   5.1701e-05  3.33372e-05      62.7343 
         -50      45.5654  5.14454e-05     3.33e-05      62.7207 
         -50      45.8589  5.12171e-05   3.3194e-05      62.7071 
         -50      46.1534  5.10075e-05  3.30464e-05      62.6934 
         -50      46.4488  5.08088e-05   3.2893e-05      62.6797 
         -50      46.7451  5.06154e-05  3.27788e-05       62.666 
         -50      47.0423  5.04281e-05  3.27581e-05      62.6522 
         -50      47.3406  5.02012e-05  3.28262e-05      62.6384 
         -50      47.6397  4.97641e-05  3.26414e-05      62.6246 
         -50      47.9398  4.93987e-05  3.24622e-05      62.6108 
         -50      48.2409  4.90923e-05  3.22984e-05      62.5969 
         -50      48.5428  4.88319e-05   3.2157e-05       62.583 
         -50      48.8457  4.86046e-05  3.20423e-05      62.5691 
         -50      49.1496  4.83985e-05  3.19559e-05      62.5551 
         -50      49.4545   4.8203e-05  3.18976e-05      62.5411 
         -50      49.7602  4.80094e-05  3.18654e-05      62.5271 
         -50      50.0668  4.78112e-05   3.1856e-05      62.5131 
         -50      50.3744   4.7604e-05  3.18647e-05       62.499 
         -50      50.6831  4.73856e-05  3.18865e-05       62.485 
         -50      50.9926  4.71564e-05  3.19156e-05      62.4709 
         -50       51.303  4.69185e-05  3.19461e-05      62.4567 
         -50      51.6144  4.66756e-05  3.19722e-05      62.4426 
         -50      51.9268  4.64325e-05  3.19886e-05      62.4284 
         -50        52.24  4.61946e-05  3.19906e-05      62.4143 
         -50      52.5542  4.59662e-05  3.19742e-05      62.4001 
         -50      52.8694  4.57504e-05  3.19367e-05      62.3859 
         -50      53.1856  4.55471e-05  3.18766e-05      62.3717 
         -50      53.5026   4.5352e-05  3.17939e-05      62.3574 
         -50      53.8205  4.51543e-05  3.16904e-05      62.3432 
         -50      54.1396  4.49353e-05  3.15693e-05      62.3289 
         -50      54.4594  4.46659e-05  3.14362e-05      62.3146 
         -50      54.7802  4.43042e-05  3.12984e-05      62.3003 
         -50      55.1019  4.40962e-05  3.12703e-05      62.2861 
         -50      55.4247  4.38906e-05  3.12672e-05      62.2717 
         -50      55.7483  4.36582e-05  3.12613e-05      62.2574 
         -50      56.0729    4.341e-05   3.1246e-05      62.2431 
         -50      56.3984  4.31544e-05  3.12173e-05      62.2288 
         -50       56.725  4.28976e-05  3.11736e-05      62.2144 
         -50      57.0523  4.26439e-05  3.11147e-05      62.2001 
         -50      57.3807  4.23958e-05  3.10422e-05      62.1857 
         -50      57.7099  4.21545e-05  3.09584e-05      62.1714 
         -50      58.0403  4.19202e-05  3.08663e-05       62.157 
         -50      58.3714  4.16923e-05  3.07694e-05      62.1427 
         -50      58.7035  4.14698e-05  3.06711e-05      62.1283 
         -50      59.0367  4.12513e-05  3.05743e-05      62.1139 
         -50      59.3707  4.10356e-05  3.04819e-05      62.0996 
         -50      59.7056  4.08213e-05  3.03957e-05      62.0852 
         -50      60.0414  4.06076e-05  3.03169e-05      62.0709 
         -50      60.3784  4.03938e-05  3.02455e-05      62.0565 
         -50      60.7161  4.01802e-05  3.01807e-05      62.0421 
         -50      61.0548  3.99673e-05  3.01206e-05      62.0278 
         -50      61.3944  3.97566e-05  3.00622e-05      62.0135 
         -50      61.7351  3.95499e-05  3.00018e-05      61.9991 
         -50      62.0767    3.935e-05  2.99346e-05      61.9848 
         -50      62.4191  3.91599e-05  2.98555e-05      61.9704 
         -50      62.7625  3.89832e-05   2.9759e-05      61.9561 
         -50       63.107  3.88236e-05  2.96394e-05      61.9418 
         -50      63.4523  3.86851e-05  2.94918e-05      61.9275 
         -50      63.7985  3.85712e-05  2.93119e-05      61.9132 
         -50      64.1458  3.85779e-05  2.88894e-05      61.8989 
         -50      64.4939  3.84637e-05  2.86139e-05      61.8847 
         -50       64.843  3.82551e-05  2.84721e-05      61.8704 
         -50      65.1929  3.79827e-05  2.84338e-05      61.8562 
         -50       65.544  3.76817e-05   2.8457e-05      61.8419 
         -50      65.8959   3.7394e-05  2.84896e-05      61.8277 
         -50      66.2487  3.71714e-05  2.84713e-05      61.8135 
         -50      66.6025   3.7072e-05  2.83416e-05      61.7993 
         -50      66.9573  3.67876e-05  2.83793e-05      61.7851 
         -50       67.313  3.65522e-05  2.83898e-05       61.771 
         -50      67.6695  3.63548e-05  2.83614e-05      61.7569 
         -50      68.0271  3.61877e-05  2.82857e-05      61.7427 
         -50      68.3857  3.60463e-05  2.81573e-05      61.7286 
         -50      68.7451  3.59288e-05  2.79746e-05      61.7146 
         -50      69.1055   3.5836e-05  2.77395e-05      61.7005 
         -50      69.4669  3.57709e-05  2.74574e-05      61.6865 
         -50      69.8291  3.56756e-05  2.72388e-05      61.6725 
         -50      70.1923  3.53713e-05  2.73431e-05      61.6585 
         -50      70.5564  3.50919e-05  2.73799e-05      61.6445 
         -50      70.9217  3.48369e-05  2.73577e-05      61.6306 
         -50      71.2877  3.46053e-05  2.72862e-05      61.6167 
         -50      71.6546  3.43946e-05  2.71753e-05      61.6028 
         -50      72.0225   3.4202e-05  2.70352e-05      61.5889 
         -50      72.3915  3.40241e-05  2.68754e-05      61.5751 
         -50      72.7613  3.38579e-05  2.67052e-05      61.5613 
         -50       73.132  3.36997e-05  2.65326e-05      61.5475 
         -50      73.5036  3.35466e-05  2.63644e-05      61.5337 
         -50      73.8764  3.33957e-05  2.62061e-05        61.52 
         -50      74.2499  3.32446e-05  2.60619e-05      61.5063 
         -50      74.6244  3.30918e-05  2.59341e-05      61.4927 
         -50           75  3.29359e-05  2.58232e-05       61.479 
         -25            0  6.95203e-20  8.72896e-24      61.6407 
         -25     0.000471  6.80454e-06  8.72596e-10      61.6407 
         -25     0.001884  2.41621e-05  3.30998e-09      61.6407 
         -25     0.004239  4.44915e-05  6.86482e-09      61.6407 
         -25     0.007537   5.9654e-05  1.10605e-08      61.6407 
         -25     0.011776  6.52209e-05  1.56474e-08      61.6407 
         -25     0.016958  6.26746e-05  2.07583e-08      61.6407 
         -25     0.023081  5.79015e-05  2.68352e-08      61.6407 
         -25      0.03015  5.65081e-05  3.43843e-08      61.6407 
         -25     0.038157  5.89192e-05  4.36512e-08      61.6407 
         -25     0.047107  5.98677e-05  5.45381e-08      61.6407 
         -25     0.056999  5.53566e-05   6.6801e-08      61.6407 
         -25     0.067837  5.20711e-05  8.02888e-08      61.6407 
         -25     0.079614  5.50505e-05  9.37499e-08      61.6407 
         -25     0.092332  5.02921e-05   1.0595e-07      61.6407 
         -25     0.105992  4.92733e-05  1.17329e-07      61.6407 
         -25       0.1206  4.74854e-05  1.25932e-07      61.6407 
         -25     0.136145  4.59097e-05  1.30659e-07      61.6407 
         -25     0.152631  4.47983e-05  1.30437e-07      61.6407 
         -25     0.170067  4.39148e-05  1.24131e-07      61.6407 
         -25     0.188438  4.29725e-05  1.10493e-07      61.6407 
         -25     0.207751   4.2051e-05  8.81715e-08      61.6406 
         -25     0.228006  4.15663e-05  5.60207e-08      61.6406 
         -25     0.249212  4.10371e-05  1.39251e-08      61.6406 
         -25     0.271351  4.07386e-05 -3.88836e-08      61.6406 
         -25     0.294433  4.05205e-05  -1.0498e-07      61.6406 
         -25     0.318456  4.03538e-05 -1.83744e-07      61.6406 
         -25     0.343432  4.02445e-05 -2.73321e-07      61.6406 
         -25     0.369339  4.01856e-05 -3.70692e-07      61.6406 
         -25     0.396189  4.01616e-05 -4.72347e-07      61.6406 
         -25     0.423981  4.01535e-05 -5.74708e-07      61.6406 
         -25     0.452726  4.01458e-05 -6.74937e-07      61.6406 
         -25     0.482403   4.0132e-05 -7.71586e-07      61.6406 
         -25     0.513021  4.01176e-05 -8.65559e-07      61.6406 
         -25     0.544594  4.01181e-05 -9.60569e-07      61.6405 
         -25     0.577096  4.01463e-05 -1.06314e-06      61.6405 
         -25     0.610541  4.01883e-05  -1.1842e-06      61.6405 
         -25     0.644927  4.02924e-05 -1.35275e-06      61.6405 
         -25      0.68027  4.04576e-05 -1.51447e-06      61.6405 
         -25     0.716541  4.06942e-05 -1.66941e-06      61.6405 
         -25     0.753754  4.10105e-05 -1.81766e-06      61.6404 
         -25     0.791909  4.14129e-05 -1.95919e-06      61.6404 
         -25     0.831022  4.19056e-05 -2.09395e-06      61.6404 
         -25     0.871061  4.24902e-05 -2.22175e-06      61.6404 
         -25     0.912043  4.31667e-05 -2.34268e-06      61.6403 
         -25     0.953966   4.3933e-05 -2.45689e-06      61.6403 
         -25     0.996849   4.4786e-05 -2.56478e-06      61.6403 
         -25      1.04066    4.572e-05 -2.66687e-06      61.6402 
         -25      1.08541  4.67295e-05 -2.76401e-06      61.6402 
         -25      1.13112  4.78082e-05 -2.85721e-06      61.6402 
         -25      1.17775  4.89482e-05 -2.94735e-06      61.6401 
         -25      1.22533  5.01426e-05  -3.0352e-06      61.6401 
         -25      1.27384  5.13834e-05 -3.12083e-06        61.64 