Variables = x, y, u, v, p

Zone, I=20800, F=POINT
         -50            0            0            0  0.000531146 
         -50     0.000234  4.61735e-10  4.00941e-11  0.000531146 
         -50     0.000939  2.52667e-09  1.30151e-10  0.000531146 
         -50     0.002113  8.18354e-09  1.78964e-10  0.000531146 
         -50     0.003759  2.06882e-08  3.87929e-11  0.000531146 
         -50     0.005872  4.43445e-08 -4.88775e-10  0.000531146 
         -50     0.008457  8.44835e-08 -1.64926e-09  0.000531145 
         -50      0.01151  1.47039e-07 -3.72497e-09  0.000531145 
         -50     0.015036  2.38585e-07 -7.03851e-09  0.000531145 
         -50     0.019031  3.65697e-07 -1.19361e-08  0.000531145 
         -50     0.023493  5.34843e-07 -1.87886e-08  0.000531144 
         -50     0.028429  7.52488e-07 -2.80027e-08  0.000531144 
         -50     0.033831  1.02381e-06 -3.99693e-08  0.000531143 
         -50     0.039706  1.35375e-06 -5.51055e-08  0.000531143 
         -50     0.046047  1.74534e-06 -7.37718e-08  0.000531143 
         -50     0.052863  2.20124e-06 -9.63307e-08  0.000531142 
         -50      0.06015  2.72177e-06 -1.23055e-07  0.000531142 
         -50       0.0679  3.30524e-06 -1.54165e-07  0.000531142 
         -50     0.076126  3.94987e-06 -1.90035e-07  0.000531141 
         -50     0.084816  4.65036e-06 -2.31168e-07  0.000531141 
         -50     0.093982  5.40186e-06 -2.76821e-07  0.000531141 
         -50     0.103611  6.19547e-06 -3.27252e-07  0.000531141 
         -50     0.113718  7.02436e-06 -3.83265e-07  0.000531141 
         -50     0.124286  7.87785e-06 -4.44955e-07  0.000531141 
         -50     0.135333  8.74722e-06 -5.12168e-07  0.000531141 
         -50      0.14685  9.62095e-06 -5.84319e-07  0.000531141 
         -50     0.158827  1.04874e-05 -6.60792e-07  0.000531141 
         -50     0.171284  1.13371e-05 -7.41413e-07  0.000531142 
         -50     0.184201  1.21587e-05   -8.262e-07  0.000531142 
         -50     0.197599  1.29443e-05 -9.15865e-07  0.000531143 
         -50     0.211455  1.36842e-05  -1.0108e-06  0.000531143 
         -50     0.225792  1.43727e-05 -1.11049e-06  0.000531144 
         -50       0.2406  1.50026e-05 -1.21068e-06  0.000531146 
         -50     0.255865  1.55646e-05 -1.30762e-06  0.000531147 
         -50     0.271613  1.60612e-05 -1.42029e-06  0.000531147 
         -50     0.287818  1.64905e-05 -1.53121e-06  0.000531148 
         -50     0.304506  1.68472e-05 -1.62713e-06   0.00053115 
         -50      0.32165  1.71276e-05 -1.70139e-06  0.000531151 
         -50     0.339278  1.73325e-05 -1.75415e-06  0.000531152 
         -50     0.357377  1.74647e-05 -1.79129e-06  0.000531152 
         -50      0.37593  1.75291e-05 -1.82338e-06  0.000531151 
         -50     0.394968  1.75324e-05 -1.86412e-06   0.00053115 
         -50     0.414461  1.74813e-05 -1.92811e-06  0.000531149 
         -50      0.43444  1.73821e-05 -2.02904e-06  0.000531148 
         -50     0.454872    1.724e-05 -2.17698e-06  0.000531148 
         -50     0.475791  1.70576e-05 -2.37708e-06   0.00053115 
         -50     0.497163  1.68362e-05 -2.62718e-06  0.000531155 
         -50     0.519021  1.65744e-05 -2.91867e-06  0.000531162 
         -50      0.54135  1.62714e-05 -3.23631e-06  0.000531172 
         -50     0.564131  1.59285e-05   -3.562e-06  0.000531184 
         -50       0.5874  1.55535e-05   -3.882e-06  0.000531197 
         -50     0.611121  1.51588e-05 -4.15145e-06   0.00053121 
         -50      0.63533  1.46744e-05 -3.98618e-06  0.000531221 
         -50      0.65999  1.41922e-05 -3.84162e-06  0.000531226 
         -50     0.685139  1.37064e-05 -3.72192e-06  0.000531226 
         -50     0.710759   1.3213e-05 -3.63025e-06  0.000531221 
         -50     0.736828  1.27092e-05 -3.56845e-06  0.000531212 
         -50     0.763387  1.21924e-05 -3.53691e-06  0.000531201 
         -50     0.790396  1.16623e-05 -3.53496e-06  0.000531188 
         -50     0.817896  1.11185e-05 -3.56073e-06  0.000531174 
         -50     0.845843  1.05631e-05  -3.6113e-06   0.00053116 
         -50     0.874283  9.99756e-06 -3.68301e-06  0.000531145 
         -50      0.90317   9.4259e-06 -3.77132e-06  0.000531131 
         -50     0.932551  8.85111e-06 -3.87145e-06  0.000531118 
         -50     0.962401  8.27814e-06 -3.97819e-06  0.000531105 
         -50     0.992697  7.71223e-06 -4.08631e-06  0.000531093 
         -50      1.02349  7.15741e-06 -4.19112e-06  0.000531082 
         -50      1.05472  6.61943e-06  -4.2881e-06  0.000531071 
         -50      1.08645  6.10187e-06 -4.37381e-06  0.000531059 
         -50      1.11863  5.60942e-06 -4.44548e-06  0.000531047 
         -50       1.1513  5.14427e-06 -4.50173e-06  0.000531034 
         -50      1.18444  4.70868e-06 -4.54221e-06  0.000531019 
         -50      1.21802  4.30345e-06 -4.56785e-06  0.000531003 
         -50      1.25211   3.9269e-06 -4.58072e-06  0.000530983 
         -50      1.28663  3.57699e-06 -4.58367e-06  0.000530961 
         -50      1.32165  3.24881e-06 -4.57997e-06  0.000530935 
         -50      1.35712   2.9369e-06 -4.57257e-06  0.000530907 
         -50      1.39308  2.63336e-06 -4.56318e-06  0.000530877 
         -50      1.42951  2.32987e-06 -4.55102e-06  0.000530846 
         -50      1.46638  2.01757e-06 -4.53114e-06  0.000530816 
         -50      1.50375  1.68697e-06 -4.49237e-06   0.00053079 
         -50      1.54156  1.34679e-06 -4.45361e-06  0.000530757 
         -50      1.57987  1.00001e-06 -4.41188e-06   0.00053072 
         -50      1.61863  6.50786e-07 -4.36577e-06  0.000530683 
         -50      1.65788   3.0244e-07 -4.31517e-06  0.000530644 
         -50      1.69757 -4.09352e-08 -4.26019e-06  0.000530604 
         -50      1.73776 -3.76739e-07 -4.20081e-06  0.000530563 
         -50      1.77842 -7.01905e-07 -4.13719e-06  0.000530521 
         -50      1.81952 -1.01376e-06 -4.06955e-06  0.000530478 
         -50      1.86113 -1.31077e-06 -3.99799e-06  0.000530433 
         -50      1.90316  -1.5908e-06 -3.92286e-06  0.000530388 
         -50      1.94571 -1.85302e-06 -3.84433e-06  0.000530342 
         -50      1.98869 -2.09606e-06 -3.76284e-06  0.000530295 
         -50      2.03217 -2.31975e-06 -3.67861e-06  0.000530247 
         -50      2.07612 -2.52363e-06 -3.59207e-06  0.000530199 
         -50      2.12051 -2.70761e-06 -3.50368e-06   0.00053015 
         -50       2.1654 -2.87233e-06 -3.41369e-06  0.000530101 
         -50      2.21073 -3.01811e-06 -3.32266e-06  0.000530051 
         -50      2.25656   -3.146e-06 -3.23086e-06      0.00053 
         -50      2.30283 -3.25679e-06 -3.13881e-06   0.00052995 
         -50       2.3496 -3.35179e-06 -3.04678e-06  0.000529899 
         -50      2.39685 -3.43218e-06 -2.95519e-06  0.000529848 
         -50      2.44452 -3.49921e-06 -2.86447e-06  0.000529797 
         -50      2.49271 -3.55433e-06 -2.77477e-06  0.000529745 
         -50      2.54132 -3.59877e-06  -2.6865e-06  0.000529694 
         -50      2.59044 -3.63387e-06 -2.59975e-06  0.000529643 
         -50         2.64 -3.66073e-06 -2.51482e-06  0.000529592 
         -50      2.69006 -3.68042e-06 -2.43171e-06  0.000529541 
         -50      2.74056 -3.69377e-06 -2.35058e-06   0.00052949 
         -50      2.79156 -3.70147e-06 -2.27133e-06   0.00052944 
         -50      2.84304 -3.70395e-06 -2.19395e-06   0.00052939 
         -50      2.89494 -3.70145e-06 -2.11837e-06   0.00052934 
         -50      2.94735 -3.69396e-06 -2.04429e-06   0.00052929 
         -50       3.0002 -3.68129e-06 -1.97161e-06  0.000529241 
         -50      3.05355 -3.66302e-06 -1.89995e-06  0.000529193 
         -50      3.10733 -3.63865e-06  -1.8291e-06  0.000529144 
         -50      3.16163 -3.60754e-06 -1.75863e-06  0.000529097 
         -50      3.21639 -3.56909e-06  -1.6883e-06  0.000529049 
         -50      3.27158 -3.52286e-06 -1.61786e-06  0.000529003 
         -50      3.32729 -3.46858e-06 -1.54698e-06  0.000528956 
         -50      3.38342 -3.40654e-06 -1.47561e-06  0.000528911 
         -50      3.44007 -3.33751e-06 -1.40363e-06  0.000528865 
         -50      3.49714 -3.26336e-06 -1.33131e-06   0.00052882 
         -50      3.55472  -3.1869e-06 -1.25893e-06  0.000528776 
         -50      3.61273 -3.11271e-06 -1.18725e-06  0.000528731 
         -50      3.67125 -3.04706e-06 -1.11723e-06  0.000528688 
         -50      3.73025 -2.99878e-06 -1.05037e-06  0.000528644 
         -50      3.78967 -2.95138e-06 -9.84406e-07  0.000528601 
         -50      3.84961 -2.89391e-06 -9.18812e-07  0.000528559 
         -50      3.90996 -2.83531e-06 -8.55463e-07  0.000528516 
         -50      3.97084 -2.77399e-06 -7.91494e-07  0.000528476 
         -50      4.03214  -2.7134e-06 -7.28082e-07  0.000528436 
         -50      4.09395 -2.65409e-06 -6.65762e-07  0.000528397 
         -50      4.15624 -2.59625e-06 -6.04807e-07  0.000528357 
         -50      4.21895 -2.53995e-06 -5.45413e-07  0.000528318 
         -50      4.28217 -2.48504e-06 -4.87578e-07   0.00052828 
         -50      4.34582 -2.43149e-06 -4.31429e-07  0.000528241 
         -50      4.40998 -2.37909e-06 -3.76869e-07  0.000528203 
         -50      4.47457 -2.32774e-06 -3.23939e-07  0.000528166 
         -50      4.53968 -2.27725e-06 -2.72486e-07  0.000528129 
         -50      4.60525 -2.22753e-06 -2.22461e-07  0.000528092 
         -50      4.67125 -2.17855e-06 -1.73805e-07  0.000528055 
         -50      4.73777 -2.13022e-06 -1.26341e-07   0.00052802 
         -50       4.8047 -2.08266e-06 -8.00492e-08  0.000527984 
         -50      4.87216 -2.03587e-06 -3.47755e-08  0.000527949 
         -50      4.94003 -1.99008e-06  9.47034e-09  0.000527915 
         -50      5.00843 -1.94538e-06  5.27981e-08  0.000527881 
         -50      5.07724   -1.902e-06   9.5149e-08  0.000527847 
         -50      5.14658 -1.86002e-06  1.36575e-07  0.000527814 
         -50      5.21639 -1.81952e-06  1.76995e-07  0.000527781 
         -50      5.28661 -1.78045e-06  2.16306e-07  0.000527748 
         -50      5.35736 -1.74245e-06  2.54476e-07  0.000527716 
         -50      5.42852 -1.70497e-06  2.91335e-07  0.000527684 
         -50      5.50021 -1.66695e-06  3.26828e-07  0.000527653 
         -50      5.57231  -1.6269e-06  3.60796e-07  0.000527621 
         -50      5.64493 -1.58255e-06  3.93214e-07   0.00052759 
         -50      5.71803  -1.5483e-06  4.22029e-07   0.00052756 
         -50      5.79154 -1.51335e-06  4.50676e-07   0.00052753 
         -50      5.86558 -1.47791e-06  4.78994e-07    0.0005275 
         -50      5.94003 -1.44238e-06  5.06632e-07   0.00052747 
         -50      6.01501 -1.40708e-06  5.33286e-07  0.000527441 
         -50       6.0904 -1.37241e-06  5.58582e-07  0.000527412 
         -50      6.16632 -1.33863e-06  5.82297e-07  0.000527383 
         -50      6.24271 -1.30597e-06   6.0426e-07  0.000527354 
         -50       6.3195  -1.2746e-06  6.24461e-07  0.000527325 
         -50      6.39683 -1.24448e-06  6.43134e-07  0.000527297 
         -50      6.47457  -1.2156e-06  6.60662e-07  0.000527269 
         -50      6.55284 -1.18775e-06  6.77724e-07  0.000527241 
         -50      6.63152 -1.16075e-06  6.95181e-07  0.000527214 
         -50      6.71073 -1.13434e-06  7.14181e-07  0.000527188 
         -50      6.79034 -1.10861e-06  7.29731e-07  0.000527161 
         -50      6.87049 -1.08275e-06  7.43859e-07  0.000527134 
         -50      6.95111 -1.05676e-06  7.58454e-07  0.000527107 
         -50      7.03214 -1.03083e-06  7.73034e-07  0.000527081 
         -50       7.1137 -1.00507e-06  7.87224e-07  0.000527055 
         -50      7.19566 -9.79637e-07  8.00676e-07  0.000527029 
         -50      7.27816 -9.54564e-07  8.13163e-07  0.000527004 
         -50      7.36106 -9.29959e-07  8.24495e-07  0.000526979 
         -50      7.44451 -9.05829e-07  8.34599e-07  0.000526953 
         -50      7.52842 -8.82238e-07  8.43461e-07  0.000526928 
         -50      7.61273 -8.59263e-07   8.5115e-07  0.000526903 
         -50      7.69758 -8.36956e-07  8.57841e-07  0.000526878 
         -50      7.78283 -8.15496e-07  8.63765e-07  0.000526853 
         -50      7.86862 -7.95077e-07  8.69259e-07  0.000526828 
         -50      7.95481 -7.76075e-07   8.7472e-07  0.000526803 
         -50      8.04155 -7.58959e-07  8.80643e-07  0.000526779 
         -50      8.12868 -7.38044e-07  8.84132e-07  0.000526755 
         -50      8.21635 -7.16443e-07  8.87568e-07  0.000526731 
         -50      8.30449 -6.95712e-07   8.9137e-07  0.000526707 
         -50      8.39303 -6.75813e-07  8.95046e-07  0.000526683 
         -50      8.48211 -6.56684e-07  8.98221e-07  0.000526659 
         -50      8.57159 -6.38344e-07  9.00637e-07  0.000526635 
         -50      8.66161 -6.20756e-07  9.02178e-07  0.000526611 
         -50      8.75203  -6.0393e-07  9.02861e-07  0.000526588 
         -50      8.84299 -5.87797e-07  9.02818e-07  0.000526564 
         -50      8.93443 -5.72273e-07   9.0227e-07   0.00052654 
         -50      9.02626 -5.57192e-07  9.01473e-07  0.000526517 
         -50      9.11863 -5.42236e-07  9.00656e-07  0.000526493 
         -50      9.21139  -5.2698e-07  8.99937e-07   0.00052647 
         -50      9.30471 -5.10748e-07  8.99209e-07  0.000526447 
         -50      9.39841 -4.96515e-07  8.96425e-07  0.000526423 
         -50      9.49267 -4.84813e-07   8.9326e-07  0.000526399 
         -50      9.58739 -4.72514e-07  8.91265e-07  0.000526374 
         -50      9.68251 -4.59826e-07  8.89827e-07   0.00052635 
         -50      9.77817 -4.46905e-07  8.88482e-07  0.000526327 
         -50      9.87422 -4.33924e-07  8.86907e-07  0.000526303 
         -50      9.97083 -4.20993e-07  8.84885e-07  0.000526279 
         -50      10.0678  -4.0824e-07  8.82303e-07  0.000526256 
         -50      10.1654 -3.95732e-07  8.79117e-07  0.000526232 
         -50      10.2633 -3.83554e-07  8.75355e-07  0.000526209 
         -50      10.3618 -3.71732e-07  8.71074e-07  0.000526185 
         -50      10.4607 -3.60301e-07   8.6637e-07  0.000526162 
         -50      10.5601 -3.49279e-07  8.61355e-07  0.000526138 
         -50        10.66 -3.38642e-07  8.56129e-07  0.000526114 
         -50      10.7603 -3.28385e-07  8.50795e-07   0.00052609 
         -50      10.8611  -3.1846e-07  8.45424e-07  0.000526066 
         -50      10.9623 -3.08839e-07  8.40074e-07  0.000526041 
         -50      11.0641 -2.99461e-07  8.34755e-07  0.000526017 
         -50      11.1663 -2.90283e-07  8.29453e-07  0.000525992 
         -50       11.269 -2.81262e-07  8.24123e-07  0.000525967 
         -50      11.3721 -2.72339e-07  8.18674e-07  0.000525943 
         -50      11.4757 -2.63494e-07  8.13011e-07  0.000525918 
         -50      11.5798 -2.54693e-07  8.07009e-07  0.000525893 
         -50      11.6844 -2.45951e-07  8.00561e-07  0.000525867 
         -50      11.7894 -2.37279e-07  7.93567e-07  0.000525842 
         -50       11.895 -2.28745e-07  7.85986e-07  0.000525817 
         -50      12.0009 -2.20453e-07  7.77854e-07  0.000525791 
         -50      12.1073 -2.12536e-07    7.693e-07  0.000525766 
         -50      12.2142 -2.05211e-07  7.60631e-07   0.00052574 
         -50      12.3216 -1.98731e-07  7.52326e-07  0.000525715 
         -50      12.4294  -1.9345e-07  7.45143e-07  0.000525689 
         -50      12.5378 -1.89784e-07  7.40133e-07  0.000525663 
         -50      12.6465 -1.84797e-07   7.3617e-07  0.000525637 
         -50      12.7558 -1.75106e-07  7.28521e-07  0.000525611 
         -50      12.8656 -1.68156e-07  7.16439e-07  0.000525584 
         -50      12.9757 -1.60916e-07  7.05462e-07  0.000525557 
         -50      13.0864 -1.51284e-07   6.9625e-07   0.00052553 
         -50      13.1975 -1.43956e-07  6.88431e-07  0.000525503 
         -50      13.3092 -1.38171e-07   6.8144e-07  0.000525476 
         -50      13.4212 -1.33344e-07  6.74868e-07  0.000525448 
         -50      13.5338 -1.29008e-07  6.68402e-07  0.000525421 
         -50      13.6468 -1.24831e-07  6.61843e-07  0.000525393 
         -50      13.7603 -1.20583e-07  6.55074e-07  0.000525365 
         -50      13.8743 -1.16118e-07  6.48032e-07  0.000525337 
         -50      13.9886 -1.11376e-07  6.40726e-07  0.000525308 
         -50      14.1036 -1.06345e-07  6.33185e-07   0.00052528 
         -50      14.2189 -1.01074e-07  6.25483e-07  0.000525251 
         -50      14.3348 -9.56294e-08  6.17688e-07  0.000525222 
         -50       14.451 -9.01172e-08  6.09891e-07  0.000525193 
         -50      14.5678 -8.46352e-08  6.02158e-07  0.000525163 
         -50      14.6851 -7.92945e-08  5.94554e-07  0.000525134 
         -50      14.8028 -7.41967e-08  5.87129e-07  0.000525104 
         -50       14.921 -6.94146e-08  5.79888e-07  0.000525074 
         -50      15.0396 -6.50138e-08  5.72835e-07  0.000525044 
         -50      15.1588 -6.10181e-08  5.65926e-07  0.000525013 
         -50      15.2783 -5.74349e-08  5.59116e-07  0.000524982 
         -50      15.3984 -5.42291e-08   5.5232e-07  0.000524951 
         -50       15.519 -5.13456e-08   5.4546e-07   0.00052492 
         -50        15.64  -4.8703e-08  5.38462e-07  0.000524888 
         -50      15.7615 -4.61957e-08  5.31249e-07  0.000524856 
         -50      15.8834 -4.37169e-08  5.23803e-07  0.000524824 
         -50      16.0058 -4.11545e-08  5.16141e-07  0.000524791 
         -50      16.1286  -3.8423e-08  5.08383e-07  0.000524759 
         -50       16.252 -3.54645e-08   5.0074e-07  0.000524725 
         -50      16.3759 -3.22869e-08  4.93589e-07  0.000524692 
         -50      16.5002 -2.89831e-08  4.87492e-07  0.000524658 
         -50       16.625 -2.57532e-08  4.83232e-07  0.000524624 
         -50      16.7501 -2.03566e-08   4.7652e-07  0.000524591 
         -50      16.8759 -1.43683e-08  4.66136e-07  0.000524558 
         -50       17.002 -1.07399e-08  4.57576e-07  0.000524525 
         -50      17.1287 -8.60898e-09  4.50215e-07  0.000524491 
         -50      17.2557 -7.31074e-09  4.43595e-07  0.000524456 
         -50      17.3834 -6.34069e-09  4.37357e-07  0.000524421 
         -50      17.5115 -5.34266e-09  4.31264e-07  0.000524385 
         -50      17.6399 -4.08512e-09  4.25165e-07   0.00052435 
         -50       17.769 -2.43816e-09   4.1897e-07  0.000524314 
         -50      17.8984 -3.61927e-10  4.12664e-07  0.000524277 
         -50      18.0284  2.12243e-09  4.06257e-07  0.000524241 
         -50      18.1587  4.93704e-09  3.99808e-07  0.000524204 
         -50      18.2896  7.97919e-09  3.93374e-07  0.000524167 
         -50       18.421  1.11213e-08  3.87034e-07   0.00052413 
         -50      18.5528  1.42311e-08  3.80862e-07  0.000524093 
         -50      18.6851  1.71914e-08  3.74909e-07  0.000524055 
         -50      18.8178  1.98935e-08  3.69226e-07  0.000524017 
         -50      18.9511  2.22646e-08  3.63822e-07  0.000523979 
         -50      19.0847   2.4257e-08  3.58701e-07   0.00052394 
         -50      19.2189  2.58676e-08  3.53821e-07  0.000523902 
         -50      19.3535  2.71275e-08  3.49134e-07  0.000523862 
         -50      19.4886  2.81114e-08  3.44552e-07  0.000523823 
         -50      19.6242  2.89271e-08  3.39988e-07  0.000523783 
         -50      19.7602  2.97126e-08  3.35345e-07  0.000523742 
         -50      19.8968  3.06282e-08  3.30524e-07  0.000523701 
         -50      20.0337   3.1839e-08  3.25463e-07   0.00052366 
         -50      20.1712  3.35052e-08  3.20121e-07  0.000523618 
         -50      20.3091  3.52988e-08  3.15001e-07  0.000523575 
         -50      20.4475  3.51377e-08  3.10379e-07  0.000523535 
         -50      20.5864  3.43635e-08  3.04626e-07  0.000523494 
         -50      20.7257    3.372e-08  2.98523e-07  0.000523453 
         -50      20.8655  3.40828e-08  2.93045e-07  0.000523412 
         -50      21.0058  3.64698e-08  2.89425e-07   0.00052337 
         -50      21.1465  4.20566e-08  2.89151e-07  0.000523329 
         -50      21.2877  3.36759e-08  2.84256e-07  0.000523286 
         -50      21.4294  2.21478e-08  2.75218e-07  0.000523242 
         -50      21.5716  2.61906e-08  2.71718e-07  0.000523198 
         -50      21.7142  3.57274e-08  2.70147e-07  0.000523155 
         -50      21.8573  4.43768e-08  2.68054e-07  0.000523111 
         -50      22.0008  5.04772e-08  2.64249e-07  0.000523066 
         -50      22.1449  5.64638e-08  2.59548e-07   0.00052302 
         -50      22.2893  5.93446e-08  2.54122e-07  0.000522974 
         -50      22.4344   5.9726e-08  2.48269e-07  0.000522927 
         -50      22.5797  5.82733e-08  2.42297e-07  0.000522881 
         -50      22.7257  5.56614e-08  2.36472e-07  0.000522834 
         -50      22.8721  5.25317e-08  2.31023e-07  0.000522787 
         -50      23.0189  4.94508e-08  2.26115e-07   0.00052274 
         -50      23.1663  4.68691e-08   2.2183e-07  0.000522692 
         -50       23.314   4.5114e-08  2.18182e-07  0.000522645 
         -50      23.4623  4.43606e-08  2.15099e-07  0.000522598 
         -50       23.611  4.46378e-08  2.12447e-07   0.00052255 
         -50      23.7602  4.58307e-08  2.10025e-07  0.000522502 
         -50        23.91  4.76981e-08  2.07603e-07  0.000522454 
         -50        24.06   4.9901e-08  2.04941e-07  0.000522406 
         -50      24.2107  5.20532e-08  2.01823e-07  0.000522358 
         -50      24.3617  5.37648e-08   1.9811e-07  0.000522309 
         -50      24.5133  5.47259e-08  1.93779e-07   0.00052226 
         -50      24.6653  5.47821e-08  1.89007e-07   0.00052221 
         -50      24.8178  5.40424e-08  1.84215e-07   0.00052216 
         -50      24.9708  5.29961e-08  1.80176e-07  0.000522109 
         -50      25.1242  5.26505e-08  1.78099e-07  0.000522057 
         -50      25.2781  5.46854e-08  1.79724e-07  0.000522004 
         -50      25.4324  6.16228e-08  1.87448e-07  0.000521949 
         -50      25.5873  5.28021e-08  1.80335e-07  0.000521898 
         -50      25.7426  4.98185e-08   1.7328e-07  0.000521847 
         -50      25.8984   5.1661e-08  1.67679e-07  0.000521795 
         -50      26.0546  5.56317e-08  1.63185e-07  0.000521743 
         -50      26.2114  5.97092e-08  1.59523e-07   0.00052169 
         -50      26.3686  6.26166e-08  1.56533e-07  0.000521636 
         -50      26.5262  6.38312e-08  1.54133e-07  0.000521582 
         -50      26.6844  6.34866e-08  1.52267e-07  0.000521528 
         -50      26.8429  6.21719e-08  1.50842e-07  0.000521474 
         -50       27.002  6.06288e-08  1.49603e-07  0.000521419 
         -50      27.1615  5.93449e-08  1.47996e-07  0.000521364 
         -50      27.3216  5.80132e-08  1.44981e-07   0.00052131 
         -50      27.4821  5.48817e-08  1.38816e-07  0.000521255 
         -50       27.643  5.63086e-08  1.35243e-07  0.000521199 
         -50      27.8044  5.98186e-08  1.34447e-07  0.000521144 
         -50      27.9663   6.1161e-08  1.32988e-07  0.000521088 
         -50      28.1287  6.09622e-08  1.31038e-07  0.000521031 
         -50      28.2914  5.97449e-08  1.28751e-07  0.000520975 
         -50      28.4548  5.79365e-08  1.26248e-07  0.000520918 
         -50      28.6185  5.58843e-08  1.23638e-07   0.00052086 
         -50      28.7828  5.38525e-08  1.21002e-07  0.000520803 
         -50      28.9475  5.20416e-08  1.18407e-07  0.000520745 
         -50      29.1126  5.05904e-08  1.15905e-07  0.000520687 
         -50      29.2784  4.95809e-08  1.13525e-07  0.000520628 
         -50      29.4444   4.9053e-08  1.11292e-07  0.000520569 
         -50       29.611  4.90054e-08  1.09212e-07   0.00052051 
         -50       29.778  4.94061e-08  1.07286e-07  0.000520451 
         -50      29.9456  5.01988e-08  1.05502e-07  0.000520392 
         -50      30.1137  5.13073e-08  1.03844e-07  0.000520332 
         -50      30.2821   5.2642e-08  1.02291e-07  0.000520272 
         -50      30.4511  5.41097e-08  1.00815e-07  0.000520211 
         -50      30.6204  5.56109e-08  9.93892e-08   0.00052015 
         -50      30.7903  5.70539e-08  9.79811e-08  0.000520089 
         -50      30.9606  5.83495e-08  9.65635e-08  0.000520028 
         -50      31.1315  5.94243e-08  9.51055e-08  0.000519967 
         -50      31.3028  6.02158e-08  9.35826e-08  0.000519905 
         -50      31.4745  6.06795e-08  9.19738e-08  0.000519843 
         -50      31.6468   6.0791e-08  9.02594e-08  0.000519781 
         -50      31.8194  6.05454e-08  8.84302e-08  0.000519719 
         -50      31.9926  5.99586e-08  8.64783e-08  0.000519656 
         -50      32.1662  5.90688e-08  8.44089e-08  0.000519593 
         -50      32.3404   5.7932e-08  8.22286e-08   0.00051953 
         -50      32.5149  5.66256e-08  7.99592e-08  0.000519466 
         -50        32.69  5.52389e-08  7.76245e-08  0.000519403 
         -50      32.8655  5.38763e-08  7.52624e-08  0.000519339 
         -50      33.0414    5.265e-08  7.29202e-08  0.000519275 
         -50       33.218  5.16709e-08   7.0649e-08   0.00051921 
         -50      33.3948   5.1049e-08  6.85156e-08  0.000519146 
         -50      33.5723  5.08791e-08  6.65891e-08  0.000519081 
         -50        33.75  5.12359e-08  6.49527e-08  0.000519015 
         -50      33.9284  5.21626e-08  6.36914e-08   0.00051895 
         -50      34.1073  5.36588e-08  6.29011e-08  0.000518884 
         -50      34.2865  5.56659e-08  6.26813e-08  0.000518818 
         -50      34.4663  5.80601e-08  6.31355e-08  0.000518751 
         -50      34.6465  6.06245e-08   6.4369e-08  0.000518685 
         -50      34.8272  6.30464e-08  6.64912e-08  0.000518617 
         -50      35.0083  6.13871e-08  6.45816e-08  0.000518551 
         -50        35.19  5.48383e-08  5.90534e-08  0.000518485 
         -50      35.3721  4.44414e-08  5.37257e-08  0.000518419 
         -50      35.5546  3.30927e-08  5.05414e-08  0.000518353 
         -50      35.7377  4.06932e-08  5.58949e-08  0.000518285 
         -50      35.9211  4.60811e-08  6.08319e-08  0.000518218 
         -50      36.1052  4.96144e-08  6.53538e-08   0.00051815 
         -50      36.2895  5.16236e-08  6.94576e-08  0.000518082 
         -50      36.4745  5.24358e-08   7.3164e-08  0.000518014 
         -50      36.6598  5.23601e-08  7.64899e-08  0.000517946 
         -50      36.8457  5.14904e-08  7.87722e-08  0.000517877 
         -50      37.0321  4.71692e-08  6.93416e-08  0.000517807 
         -50      37.2188  4.34255e-08  6.08321e-08  0.000517737 
         -50      37.4062  4.03755e-08  5.33368e-08  0.000517666 
         -50      37.5938  3.80744e-08  4.69202e-08  0.000517596 
         -50      37.7821  3.65094e-08  4.15789e-08  0.000517525 
         -50      37.9707  3.56265e-08  3.72898e-08  0.000517455 
         -50      38.1599  3.53315e-08   3.3983e-08  0.000517384 
         -50      38.3496  3.55072e-08  3.15743e-08  0.000517313 
         -50      38.5396  3.60191e-08  2.99589e-08  0.000517242 
         -50      38.7302  3.67279e-08  2.90161e-08  0.000517171 
         -50      38.9211  3.74942e-08  2.86226e-08    0.0005171 
         -50      39.1127  3.81902e-08   2.8652e-08  0.000517028 
         -50      39.3046  3.87018e-08  2.89813e-08  0.000516957 
         -50      39.4971  3.89375e-08  2.94959e-08  0.000516885 
         -50      39.6899  3.88309e-08  3.00908e-08  0.000516813 
         -50      39.8833  3.83443e-08   3.0677e-08  0.000516741 
         -50      40.0772  3.74711e-08  3.11803e-08  0.000516669 
         -50      40.2714   3.6238e-08  3.15455e-08  0.000516597 
         -50      40.4663  3.46998e-08  3.17377e-08  0.000516524 
         -50      40.6615  3.29452e-08  3.17408e-08  0.000516452 
         -50      40.8573  3.10839e-08   3.1559e-08  0.000516379 
         -50      41.0534  2.92527e-08  3.12148e-08  0.000516306 
         -50      41.2501  2.75974e-08  3.07464e-08  0.000516233 
         -50      41.4473  2.62752e-08  3.02065e-08  0.000516159 
         -50      41.6448  2.54391e-08  2.96578e-08  0.000516086 
         -50      41.8429  2.52255e-08  2.91668e-08  0.000516012 
         -50      42.0414  2.57439e-08  2.88007e-08  0.000515938 
         -50      42.2405  2.70605e-08  2.86183e-08  0.000515864 
         -50      42.4399  2.91769e-08  2.86639e-08  0.000515789 
         -50      42.6399  3.20186e-08  2.89573e-08  0.000515715 
         -50      42.8404  3.54028e-08  2.94838e-08   0.00051564 
         -50      43.0412  3.90172e-08  3.01824e-08  0.000515565 
         -50      43.2426  4.24034e-08   3.0935e-08   0.00051549 
         -50      43.4444  4.49085e-08  3.15491e-08  0.000515415 
         -50      43.6467  4.56723e-08  3.17462e-08   0.00051534 
         -50      43.8494  4.35798e-08  3.11419e-08  0.000515264 
         -50      44.0527  3.72244e-08   2.9228e-08  0.000515189 
         -50      44.2563  2.50396e-08  2.55345e-08  0.000515113 
         -50      44.4606  1.78659e-08  2.77686e-08  0.000515038 
         -50      44.6653  1.39963e-08  2.89891e-08  0.000514962 
         -50      44.8704  1.28612e-08  2.94386e-08  0.000514886 
         -50       45.076  1.38883e-08  2.93272e-08   0.00051481 
         -50       45.282  1.65083e-08  2.88285e-08  0.000514734 
         -50      45.4886  2.01631e-08  2.80766e-08  0.000514657 
         -50      45.6955   2.4293e-08  2.71654e-08  0.000514581 
         -50       45.903  2.83608e-08  2.61417e-08  0.000514505 
         -50      46.1111  3.18311e-08  2.50061e-08  0.000514428 
         -50      46.3194  3.41831e-08  2.37089e-08  0.000514352 
         -50      46.5283  3.49144e-08   2.2143e-08  0.000514275 
         -50      46.7376  3.35305e-08  2.01493e-08  0.000514199 
         -50      46.9475  2.95468e-08  1.75024e-08  0.000514122 
         -50      47.1577  2.24968e-08   1.3922e-08  0.000514045 
         -50      47.3685   1.8764e-08   1.1727e-08  0.000513968 
         -50      47.5798  2.39735e-08   1.3378e-08   0.00051389 
         -50      47.7914  2.73759e-08  1.47105e-08  0.000513812 
         -50      48.0037   2.9307e-08  1.56959e-08  0.000513733 