Variables = x, y, u, v, p

Zone, I=416, F=POINT
         -50            0            0            0      208.426 
         -50     0.013333  0.000375362   9.7456e-08      208.426 
         -50     0.053333  0.000335564  3.22629e-07      208.426 
         -50         0.12  0.000316678  6.86729e-07      208.426 
         -50     0.213332  0.000302793  1.16018e-06      208.425 
         -50     0.333332  0.000291508  1.89528e-06      208.425 
         -50         0.48  0.000281394  2.26492e-06      208.425 
         -50     0.653331  0.000275342  3.50486e-06      208.424 
         -50     0.853332  0.000276437  4.58578e-06      208.423 
         -50         1.08  0.000283533  5.85223e-06      208.422 
         -50      1.33333  0.000294649  7.60616e-06       208.42 
         -50      1.61333  0.000308775  9.62859e-06      208.417 
         -50         1.92  0.000326347  1.17202e-05      208.413 
         -50      2.25333  0.000337794  1.38479e-05      208.409 
         -50      2.61333  0.000341533  1.54392e-05      208.403 
         -50            3  0.000342313  1.56905e-05      208.396 
         -25            0           -0           -0      200.167 
         -25     0.013333   0.00027705  5.09515e-08      200.167 
         -25     0.053333  0.000251197  3.06867e-07      200.167 
         -25         0.12  0.000238849  1.00872e-06      200.167 
         -25     0.213332  0.000229841  2.20996e-06      200.167 
         -25     0.333332  0.000225649  3.78254e-06      200.167 
         -25         0.48  0.000226015  5.75547e-06      200.166 
         -25     0.653331  0.000232418  8.18665e-06      200.166 
         -25     0.853332  0.000243849  1.10529e-05      200.166 
         -25         1.08  0.000252603   1.4139e-05      200.165 
         -25      1.33333  0.000253689  1.66979e-05      200.165 
         -25      1.61333  0.000250332  1.87375e-05      200.164 
         -25         1.92  0.000245316  1.97509e-05      200.162 
         -25      2.25333  0.000238533  2.00102e-05       200.16 
         -25      2.61333  0.000234339  2.02831e-05      200.158 
         -25            3  0.000234747  2.05146e-05      200.156 
           0            0            0            0      193.332 
           0     0.013333  0.000737072 -0.000460175       193.34 
           0     0.053333  0.000451317 -0.000238799      193.352 
           0         0.12  0.000348328 -0.000162638      193.367 
           0     0.213332   0.00030142 -0.000125641      193.382 
           0     0.333332  0.000280389 -0.000103116      193.398 
           0         0.48   0.00026623 -8.63764e-05      193.414 
           0     0.653331    0.0002563 -7.38377e-05       193.43 
           0     0.853332  0.000247941 -6.41538e-05      193.445 
           0         1.08  0.000241071 -5.64672e-05       193.46 
           0      1.33333   0.00023578 -5.01694e-05      193.475 
           0      1.61333  0.000230256 -4.48404e-05      193.489 
           0         1.92  0.000222426 -4.02396e-05      193.502 
           0      2.25333  0.000212197 -3.63151e-05      193.514 
           0      2.61333  0.000199874 -3.33291e-05      193.526 
           0            3  0.000190101 -3.02778e-05      193.537 
          20            0  0.000117557  7.02551e-05      189.332 
          20     0.013333  0.000115404  7.05389e-05      189.332 
          20     0.053333  0.000108599  7.13278e-05      189.332 
          20         0.12  9.61337e-05  7.24225e-05      189.332 
          20     0.213332  7.65863e-05  7.34628e-05      189.331 
          20     0.333332  4.91889e-05  7.39613e-05      189.331 
          20         0.48  1.89007e-05  7.35845e-05       189.33 
          20     0.653331  1.30539e-08  7.25513e-05       189.33 
          20     0.853332  5.83707e-06  7.15284e-05      189.329 
          20         1.08  3.53402e-05  7.05066e-05      189.328 
          20      1.33333  7.52612e-05  6.88469e-05      189.326 
          20      1.61333  0.000120013  6.59961e-05      189.325 
          20         1.92   0.00016143  6.17649e-05      189.323 
          20      2.25333  0.000189489  5.62628e-05      189.321 
          20      2.61333  0.000205891  5.07771e-05      189.318 
          20            3  0.000220718  4.71277e-05      189.316 
          40            0            0            0      185.119 
          40     0.013333  0.000213874 -1.49474e-07      185.119 
          40     0.053333  0.000264765 -2.45005e-06      185.119 
          40         0.12   0.00045134 -1.09975e-05      185.119 
          40     0.213332  0.000716796 -2.85372e-05      185.119 
          40     0.333332  0.000927416 -5.37962e-05      185.119 
          40         0.48   0.00101871 -8.25992e-05      185.119 
          40     0.653331   0.00106158 -0.000110381      185.119 
          40     0.853332   0.00108919 -0.000135702      185.118 
          40         1.08  0.000996925 -0.000160469      185.118 
          40      1.33333  0.000794869 -0.000182594      185.118 
          40      1.61333  0.000562961 -0.000196575      185.117 
          40         1.92  0.000337656 -0.000199396      185.117 
          40      2.25333  0.000161091 -0.000191244      185.116 
          40      2.61333  4.96207e-05 -0.000173994      185.115 
          40            3 -3.07355e-06 -0.000151038      185.113 
          60            0            0            0      180.998 
          60     0.013333  7.48205e-05 -5.50137e-07      180.998 
          60     0.053333 -9.06631e-05 -8.51177e-06      180.998 
          60         0.12  9.41582e-05  -3.9035e-05      180.998 
          60     0.213332  0.000664033 -0.000103797      180.998 
          60     0.333332   0.00127568 -0.000200288      180.998 
          60         0.48    0.0015875 -0.000318601      180.998 
          60     0.653331   0.00147639 -0.000453998      180.998 
          60     0.853332   0.00107285 -0.000600795      180.998 
          60         1.08  0.000709431  -0.00074212      180.998 
          60      1.33333   0.00052659 -0.000861267      180.998 
          60      1.61333  0.000406755 -0.000948292      180.998 
          60         1.92  0.000230669 -0.000989299      180.998 
          60      2.25333   0.00010061 -0.000981572      180.997 
          60      2.61333  1.55829e-05 -0.000932804      180.997 
          60            3 -4.47636e-05 -0.000854764      180.996 
          80            0           -0           -0      177.042 
          80     0.013333  9.45629e-05 -5.86097e-07      177.042 
          80     0.053333  -2.3676e-05 -8.72112e-06      177.042 
          80         0.12  0.000152945 -3.82176e-05      177.042 
          80     0.213332  0.000608946 -9.73277e-05      177.042 
          80     0.333332   0.00105591 -0.000181613      177.042 
          80         0.48   0.00124834 -0.000283209      177.042 
          80     0.653331   0.00105762 -0.000402183      177.042 
          80     0.853332  0.000501124 -0.000537832      177.042 
          80         1.08 -3.27808e-06 -0.000667631      177.042 
          80      1.33333 -0.000116656 -0.000764785      177.042 
          80      1.61333 -7.25731e-05 -0.000827406      177.042 
          80         1.92 -7.14368e-05 -0.000853664      177.042 
          80      2.25333 -5.29782e-05 -0.000841417      177.042 
          80      2.61333 -1.95261e-05 -0.000795915      177.041 
          80            3  1.49866e-05 -0.000726608      177.041 
         100            0           -0           -0      173.174 
         100     0.013333  0.000192761 -3.64176e-07      173.174 
         100     0.053333  0.000274939 -5.23563e-06      173.174 
         100         0.12  0.000547306 -2.18681e-05      173.174 
         100     0.213332  0.000913162 -5.27744e-05      173.174 
         100     0.333332   0.00119095 -9.32833e-05      173.174 
         100         0.48   0.00129455 -0.000138334      173.174 
         100     0.653331   0.00120643 -0.000188907      173.174 
         100     0.853332  0.000921932 -0.000247949      173.174 
         100         1.08  0.000629692  -0.00030624      173.174 
         100      1.33333  0.000518525 -0.000349257      173.174 
         100      1.61333  0.000410418 -0.000376902      173.174 
         100         1.92  0.000231627 -0.000390073      173.174 
         100      2.25333  8.13529e-05 -0.000386232      173.174 
         100      2.61333 -1.93886e-05 -0.000366643      173.174 
         100            3 -7.83017e-05 -0.000335717      173.174 
         150            0            0            0      163.701 
         150     0.013333   0.00033451  5.21142e-08      163.701 
         150     0.053333  0.000684775  1.08683e-06      163.701 
         150         0.12   0.00103124  6.84012e-06      163.701 
         150     0.213332   0.00116441  2.38335e-05      163.701 
         150     0.333332   0.00107045  5.72213e-05      163.701 
         150         0.48  0.000894001  0.000107237      163.701 
         150     0.653331  0.000771428  0.000170121      163.701 
         150     0.853332  0.000716964  0.000239433      163.701 
         150         1.08  0.000645141  0.000306912      163.701 
         150      1.33333  0.000516158  0.000365953      163.701 
         150      1.61333  0.000366886  0.000413864      163.701 
         150         1.92  0.000225323  0.000446017      163.701 
         150      2.25333  0.000106065  0.000459482      163.701 
         150      2.61333  1.69595e-05  0.000454731      163.701 
         150            3 -4.11906e-05  0.000433894      163.701 
         200            0           -0           -0      154.351 
         200     0.013333   0.00050455 -1.82457e-07      154.351 
         200     0.053333   0.00134122 -1.97188e-06      154.351 
         200         0.12   0.00234474  -4.0109e-06      154.351 
         200     0.213332    0.0030444   3.6359e-06      154.351 
         200     0.333332   0.00325146  3.37341e-05      154.351 
         200         0.48   0.00315214  9.05429e-05      154.351 
         200     0.653331   0.00299348  0.000166942      154.351 
         200     0.853332   0.00279481  0.000248685      154.351 
         200         1.08   0.00243448  0.000322609      154.351 
         200      1.33333   0.00193622  0.000383898      154.351 
         200      1.61333   0.00140132  0.000434293      154.351 
         200         1.92  0.000836043  0.000469444      154.351 
         200      2.25333  0.000316473  0.000485342      154.351 
         200      2.61333 -0.000112543  0.000482752      154.351 
         200            3 -0.000432034  0.000462834      154.351 
         250            0           -0           -0      145.042 
         250     0.013333  0.000353084  2.14296e-07      145.042 
         250     0.053333  0.000712554  3.50042e-06      145.042 
         250         0.12  0.000969811  1.75071e-05      145.042 
         250     0.213332  0.000912061  5.14257e-05      145.042 
         250     0.333332  0.000616227  0.000109405      145.042 
         250         0.48  0.000310873  0.000188343      145.042 
         250     0.653331  0.000155278  0.000282343      145.042 
         250     0.853332  0.000166454  0.000385652      145.042 
         250         1.08  0.000234407  0.000489888      145.042 
         250      1.33333  0.000229294  0.000584098      145.042 
         250      1.61333  0.000170359  0.000661712      145.042 
         250         1.92  0.000126921  0.000717768      145.042 
         250      2.25333  9.01026e-05  0.000747346      145.042 
         250      2.61333  6.06582e-05    0.0007489      145.042 
         250            3  4.40194e-05  0.000723681      145.042 
         300            0           -0           -0      135.748 
         300     0.013333  0.000260505 -2.99572e-07      135.748 
         300     0.053333  0.000537571 -4.33074e-06      135.748 
         300         0.12   0.00107977 -1.84566e-05      135.748 
         300     0.213332    0.0017587 -4.58583e-05      135.748 
         300     0.333332   0.00234356 -8.31681e-05      135.748 
         300         0.48   0.00269243 -0.000123759      135.748 
         300     0.653331   0.00281579 -0.000163597      135.748 
         300     0.853332   0.00275698 -0.000203627      135.748 
         300         1.08   0.00251894 -0.000246778      135.748 
         300      1.33333    0.0021435 -0.000292584      135.748 
         300      1.61333   0.00171485 -0.000335559      135.748 
         300         1.92   0.00124175   -0.0003706      135.748 
         300      2.25333  0.000767461 -0.000394717      135.748 
         300      2.61333  0.000323541 -0.000405607      135.748 
         300            3 -5.94243e-05 -0.000402779      135.748 
         350            0            0            0      126.457 
         350     0.013333 -2.03717e-05  1.48523e-07      126.457 
         350     0.053333  -0.00058188  1.84884e-06      126.457 
         350         0.12  -0.00128955  5.88116e-06      126.457 
         350     0.213332  -0.00187296  8.23041e-06      126.457 
         350     0.333332  -0.00216016  1.68285e-06      126.457 
         350         0.48  -0.00220172 -1.79895e-05      126.457 
         350     0.653331  -0.00214486  -4.8869e-05      126.457 
         350     0.853332  -0.00204713  -8.4445e-05      126.457 
         350         1.08  -0.00184961 -0.000117099      126.457 
         350      1.33333  -0.00152562 -0.000142724      126.457 
         350      1.61333  -0.00114494 -0.000162616      126.457 
         350         1.92 -0.000741209 -0.000177488      126.457 
         350      2.25333 -0.000334804 -0.000186009      126.458 
         350      2.61333  4.97447e-05  -0.00018774      126.458 
         350            3  0.000380791 -0.000182644      126.458 
         400            0            0            0      117.169 
         400     0.013333  0.000117114  2.21107e-07      117.169 
         400     0.053333 -0.000115785  3.13953e-06      117.169 
         400         0.12 -0.000501748   1.2967e-05      117.169 
         400     0.213332 -0.000935977  3.08178e-05      117.169 
         400     0.333332  -0.00125343  5.29891e-05      117.169 
         400         0.48  -0.00138906  7.47932e-05      117.169 
         400     0.653331  -0.00138772  9.50772e-05      117.169 
         400     0.853332  -0.00128934  0.000116708      117.169 
         400         1.08  -0.00108992  0.000142886      117.169 
         400      1.33333 -0.000834359  0.000172133      117.169 
         400      1.61333 -0.000600867  0.000198852      117.169 
         400         1.92 -0.000371262  0.000219876      117.169 
         400      2.25333   -0.0001383  0.000234202      117.169 
         400      2.61333  8.72005e-05  0.000240782      117.169 
         400            3  0.000287002    0.0002391      117.169 
         450            0            0            0       107.88 
         450     0.013333  0.000197255  5.12625e-08       107.88 
         450     0.053333  0.000213464  7.77367e-07       107.88 
         450         0.12  0.000215971  3.52774e-06       107.88 
         450     0.213332  0.000185643  9.35848e-06       107.88 
         450     0.333332   0.00014895   1.8082e-05       107.88 
         450         0.48  0.000135076  2.86482e-05       107.88 
         450     0.653331  0.000150965  4.03741e-05       107.88 
         450     0.853332  0.000190437  5.33204e-05       107.88 
         450         1.08  0.000240758  6.72547e-05       107.88 
         450      1.33333  0.000271137  8.04093e-05       107.88 
         450      1.61333  0.000263373  9.06818e-05       107.88 
         450         1.92  0.000244973  9.76104e-05       107.88 
         450      2.25333  0.000226341  0.000101297       107.88 
         450      2.61333  0.000207371  0.000101521       107.88 
         450            3  0.000188401   9.8124e-05       107.88 
         500            0           -0           -0      98.5887 
         500     0.013333  0.000233735 -3.70919e-09      98.5887 
         500     0.053333   0.00035656  3.13061e-08      98.5887 
         500         0.12  0.000509171   7.1074e-07      98.5887 
         500     0.213332  0.000608689  3.65505e-06      98.5887 
         500     0.333332  0.000624216  1.06705e-05      98.5887 
         500         0.48  0.000586183  2.23435e-05      98.5887 
         500     0.653331  0.000544476   3.7744e-05      98.5887 
         500     0.853332  0.000519789  5.51506e-05      98.5887 
         500         1.08  0.000496434  7.26246e-05      98.5887 
         500      1.33333   0.00045245  8.85873e-05      98.5887 
         500      1.61333  0.000391483   0.00010249      98.5887 
         500         1.92  0.000328865  0.000114219      98.5887 
         500      2.25333   0.00026556  0.000123116      98.5887 
         500      2.61333  0.000202852  0.000128464      98.5887 
         500            3  0.000145507  0.000129792      98.5887 
         550            0            0            0      89.2958 
         550     0.013333  0.000135526 -7.41571e-08      89.2958 
         550     0.053333  2.92225e-05 -1.16911e-06      89.2958 
         550         0.12 -2.34555e-05 -5.63579e-06      89.2958 
         550     0.213332  2.36498e-05 -1.61083e-05      89.2958 
         550     0.333332  0.000140144 -3.36662e-05      89.2958 
         550         0.48  0.000250568 -5.72174e-05      89.2958 
         550     0.653331  0.000304705 -8.48264e-05      89.2958 
         550     0.853332  0.000296899 -0.000115051      89.2958 
         550         1.08  0.000252175 -0.000146581      89.2958 
         550      1.33333  0.000211616 -0.000177371      89.2958 
         550      1.61333  0.000198156 -0.000205227      89.2958 
         550         1.92  0.000192992 -0.000228897      89.2958 
         550      2.25333  0.000186354 -0.000247201      89.2958 
         550      2.61333  0.000177701 -0.000258825      89.2958 
         550            3  0.000167925  -0.00026276      89.2958 
         600            0            0            0      80.0009 
         600     0.013333  0.000170858  8.41017e-08      80.0009 
         600     0.053333  0.000110612  1.21038e-06      80.0009 
         600         0.12   4.0954e-06  5.11243e-06      80.0009 
         600     0.213332 -0.000134403  1.25412e-05      80.0009 
         600     0.333332 -0.000252177  2.24799e-05      80.0009 
         600         0.48 -0.000319878  3.34355e-05      80.0009 
         600     0.653331 -0.000343206  4.52043e-05      80.0009 
         600     0.853332 -0.000326306  5.91442e-05      80.0009 
         600         1.08  -0.00025836  7.66556e-05      80.0009 
         600      1.33333 -0.000157897  9.69071e-05      80.0009 
         600      1.61333 -7.41423e-05  0.000116802      80.0009 
         600         1.92 -1.14361e-05  0.000134264      80.0009 
         600      2.25333  4.93871e-05  0.000148462      80.0009 
         600      2.61333  0.000112194  0.000158722      80.0009 
         600            3  0.000170994  0.000164376      80.0009 
         650            0            0            0      70.7041 
         650     0.013333  0.000229957  2.62515e-07      70.7041 
         650     0.053333  0.000255057  4.06506e-06      70.7041 
         650         0.12  6.69744e-05  1.91214e-05      70.7041 
         650     0.213332 -0.000417269  5.31432e-05      70.7041 
         650     0.333332  -0.00101698  0.000107663      70.7041 
         650         0.48  -0.00145853  0.000176768      70.7041 
         650     0.653331  -0.00160698  0.000252628      70.7041 
         650     0.853332  -0.00150418  0.000330374      70.7041 
         650         1.08  -0.00127941   0.00040672      70.7041 
         650      1.33333  -0.00107151  0.000477062      70.7041 
         650      1.61333 -0.000921301  0.000538032      70.7041 
         650         1.92 -0.000750738  0.000589218      70.7041 
         650      2.25333 -0.000544507  0.000628723      70.7042 
         650      2.61333 -0.000317744  0.000653513      70.7042 
         650            3 -8.77117e-05  0.000660923      70.7042 
         700            0            0            0      61.4074 
         700     0.013333  5.00889e-05 -5.72314e-07      61.4074 
         700     0.053333 -0.000124046 -8.69727e-06      61.4074 
         700         0.12  0.000126494 -3.99408e-05      61.4074 
         700     0.213332  0.000949502 -0.000108583      61.4074 
         700     0.333332    0.0020187 -0.000216799      61.4074 
         700         0.48   0.00285665 -0.000354497      61.4074 
         700     0.653331   0.00322856 -0.000510158      61.4074 
         700     0.853332   0.00315143  -0.00067925      61.4074 
         700         1.08   0.00273426 -0.000860983      61.4074 
         700      1.33333   0.00219026  -0.00104775      61.4074 
         700      1.61333   0.00176955  -0.00122434      61.4074 
         700         1.92   0.00145691  -0.00137963      61.4074 
         700      2.25333    0.0011347  -0.00150753      61.4074 
         700      2.61333  0.000779304  -0.00160097      61.4073 
         700            3   0.00042895  -0.00165262      61.4073 
         750            0   5.8914e-19 -1.03388e-26      52.1075 
         750     0.013333  0.000405948  3.07611e-07      52.1075 
         750     0.053333  0.000887098  4.78519e-06      52.1075 
         750         0.12   0.00125557  2.27483e-05      52.1075 
         750     0.213332   0.00122745  6.45204e-05      52.1075 
         750     0.333332  0.000851934  0.000135069      52.1075 
         750         0.48  0.000389798  0.000231947      52.1075 
         750     0.653331  6.44692e-05  0.000349613      52.1075 
         750     0.853332 -3.20284e-05  0.000484493      52.1075 
         750         1.08  0.000101698  0.000634797      52.1075 
         750      1.33333  0.000349675    0.0007944      52.1075 
         750      1.61333  0.000498168  0.000950047      52.1075 
         750         1.92  0.000488085   0.00108984      52.1075 
         750      2.25333  0.000433652   0.00120821      52.1075 
         750      2.61333  0.000383263   0.00129943      52.1075 
         750            3  0.000325319   0.00135744      52.1075 
         800            0            0            0      42.8057 
         800     0.013333  3.30134e-05  1.92109e-07      42.8057 
         800     0.053333 -0.000427982  2.75529e-06      42.8057 
         800         0.12  -0.00112863  1.15493e-05      42.8057 
         800     0.213332  -0.00189557  2.77787e-05      42.8057 
         800     0.333332  -0.00248033  4.74755e-05      42.8057 
         800         0.48    -0.002744   6.4094e-05      42.8057 
         800     0.653331  -0.00273008  7.36515e-05      42.8057 
         800     0.853332  -0.00256191  7.67484e-05      42.8057 
         800         1.08  -0.00232571  7.62263e-05      42.8057 
         800      1.33333  -0.00206104  7.37688e-05      42.8057 
         800      1.61333  -0.00177672  7.01153e-05      42.8057 
         800         1.92  -0.00145239  6.59571e-05      42.8057 
         800      2.25333  -0.00109231  6.16132e-05      42.8058 
         800      2.61333 -0.000710075  5.68578e-05      42.8058 
         800            3 -0.000319338  5.13165e-05      42.8058 
         850            0           -0           -0      33.5045 
         850     0.013333  7.56518e-05 -5.16085e-07      33.5045 
         850     0.053333  -4.0539e-05 -7.88632e-06      33.5045 
         850         0.12  0.000271504 -3.65318e-05      33.5045 
         850     0.213332   0.00115715 -0.000100337      33.5045 
         850     0.333332   0.00229824 -0.000202192      33.5045 
         850         0.48    0.0031961 -0.000332424      33.5045 
         850     0.653331   0.00358429 -0.000478376      33.5045 
         850     0.853332   0.00349086 -0.000633523      33.5045 
         850         1.08   0.00306934 -0.000796201      33.5045 
         850      1.33333   0.00253566 -0.000960696      33.5045 
         850      1.61333   0.00210654  -0.00111606      33.5045 
         850         1.92   0.00179054  -0.00125448      33.5045 
         850      2.25333   0.00146396  -0.00137147      33.5045 
         850      2.61333   0.00108815  -0.00146192      33.5045 
         850            3  0.000699397  -0.00151931      33.5045 
         900            0            0            0      24.2002 
         900     0.013333  0.000761324  3.41568e-07      24.2002 
         900     0.053333   0.00214184  5.79018e-06      24.2002 
         900         0.12   0.00350059  3.06463e-05      24.2002 
         900     0.213332   0.00403801  9.64669e-05      24.2002 
         900     0.333332   0.00359465   0.00022037      24.2002 
         900         0.48   0.00267411   0.00040368      24.2002 
         900     0.653331   0.00191628  0.000633915      24.2002 
         900     0.853332    0.0016368  0.000895291      24.2002 
         900         1.08   0.00175407   0.00117338      24.2002 
         900      1.33333   0.00190782   0.00145075      24.2002 
         900      1.61333   0.00178851   0.00170908      24.2002 
         900         1.92   0.00146443   0.00194071      24.2002 
         900      2.25333   0.00112016   0.00214102      24.2002 
         900      2.61333  0.000803179   0.00230258      24.2002 
         900            3   0.00048636   0.00241454      24.2002 
         950            0            0            0      14.8912 
         950     0.013333 -0.000404852  4.46318e-07      14.8912 
         950     0.053333  -0.00208474  6.04541e-06      14.8912 
         950         0.12  -0.00443557  2.28246e-05      14.8912 
         950     0.213332   -0.0067018  4.63556e-05      14.8912 
         950     0.333332  -0.00814917  5.96894e-05      14.8912 
         950         0.48  -0.00859186  4.55676e-05      14.8912 
         950     0.653331  -0.00840018 -6.45179e-07      14.8912 
         950     0.853332  -0.00802086 -6.94977e-05      14.8912 
         950         1.08  -0.00756992 -0.000143396      14.8912 
         950      1.33333  -0.00687064 -0.000204948      14.8912 
         950      1.61333  -0.00585487 -0.000247511      14.8912 
         950         1.92  -0.00476995 -0.000278565      14.8913 
         950      2.25333  -0.00369877 -0.000306161      14.8913 
         950      2.61333  -0.00261393 -0.000329605      14.8913 
         950            3  -0.00150404  -0.00034558      14.8914 
        1000            0   8.7619e-20  6.01187e-25      5.58656 
        1000     0.013333 -0.000143016 -5.82002e-07      5.58656 
        1000     0.053333  -0.00079921 -9.03235e-06      5.58656 
        1000         0.12  -0.00106046 -4.27729e-05      5.58656 
        1000     0.213332 -0.000487009 -0.000120992      5.58656 
        1000     0.333332  0.000721803 -0.000252627      5.58656 
        1000         0.48     0.001958 -0.000431619      5.58656 
        1000     0.653331   0.00274773 -0.000644459      5.58656 
        1000     0.853332   0.00297359 -0.000881089      5.58656 
        1000         1.08   0.00272523  -0.00113757      5.58656 
        1000      1.33333   0.00219155   -0.0014086      5.58656 
        1000      1.61333   0.00166229  -0.00168021      5.58656 
        1000         1.92   0.00134365  -0.00193448      5.58656 
        1000      2.25333   0.00111876  -0.00216028      5.58655 
        1000      2.61333  0.000884755  -0.00234867      5.58654 
        1000            3  0.000627488  -0.00249009      5.58653 
