Variables = x, y, u, v, p

Zone, I=1000, F=POINT
         950            0  8.86168e-15 -5.57706e-27 -0.000598782 
         950      7.5e-05  2.01865e-05  3.72079e-13 -0.000598782 
         950       0.0003  8.07463e-05  5.95339e-12 -0.000598782 
         950     0.000676   0.00018195  3.02284e-11 -0.000598782 
         950     0.001202   0.00032353  9.55718e-11 -0.000598781 
         950     0.001878  0.000505489  2.33297e-10 -0.000598781 
         950     0.002705  0.000728101  4.84004e-10 -0.000598781 
         950     0.003682    0.0009911  8.96763e-10 -0.000598781 
         950     0.004809   0.00129449  1.52973e-09 -0.000598781 
         950     0.006087   0.00163855  2.45079e-09 -0.000598781 
         950     0.007515   0.00202302  3.73552e-09 -0.000598781 
         950     0.009093   0.00244789   5.4689e-09  -0.00059878 
         950     0.010821   0.00291319  7.74484e-09  -0.00059878 
         950       0.0127   0.00341919  1.06678e-08  -0.00059878 
         950     0.014729   0.00396563  1.43485e-08  -0.00059878 
         950     0.016908   0.00455253  1.89075e-08 -0.000598779 
         950     0.019238   0.00518015   2.4477e-08 -0.000598779 
         950     0.021718   0.00584825  3.11937e-08 -0.000598779 
         950     0.024348   0.00655684  3.92051e-08 -0.000598778 
         950     0.027129    0.0073062  4.86711e-08 -0.000598778 
         950      0.03006   0.00809608  5.97541e-08 -0.000598778 
         950     0.033141   0.00892649  7.26285e-08 -0.000598777 
         950     0.036372   0.00979746  8.74773e-08 -0.000598777 
         950     0.039754    0.0107093  1.04498e-07 -0.000598776 
         950     0.043286    0.0116616  1.23887e-07 -0.000598776 
         950     0.046968    0.0126546  1.45854e-07 -0.000598775 
         950     0.050801    0.0136885  1.70624e-07 -0.000598775 
         950     0.054784     0.014763   1.9842e-07 -0.000598774 
         950     0.058917    0.0158782  2.29477e-07 -0.000598774 
         950     0.063201    0.0170344   2.6405e-07 -0.000598773 
         950     0.067635    0.0182312  3.02386e-07 -0.000598773 
         950     0.072219    0.0194688  3.44747e-07 -0.000598772 
         950     0.076953    0.0207471  3.91405e-07 -0.000598771 
         950     0.081838    0.0220665  4.42652e-07 -0.000598771 
         950     0.086873    0.0234267  4.98769e-07  -0.00059877 
         950     0.092058    0.0248278  5.60052e-07 -0.000598769 
         950     0.097394    0.0262699  6.26823e-07 -0.000598769 
         950      0.10288     0.027753  6.99387e-07 -0.000598768 
         950     0.108516     0.029277  7.78067e-07 -0.000598767 
         950     0.114303    0.0308421  8.63212e-07 -0.000598767 
         950      0.12024    0.0324483  9.55152e-07 -0.000598766 
         950     0.126327    0.0340955  1.05424e-06 -0.000598765 
         950     0.132564    0.0357836  1.16083e-06 -0.000598764 
         950     0.138952    0.0375132  1.27531e-06 -0.000598763 
         950      0.14549    0.0392838  1.39805e-06 -0.000598762 
         950     0.152178    0.0410956  1.52942e-06 -0.000598762 
         950     0.159017    0.0429488  1.66985e-06 -0.000598761 
         950     0.166006    0.0448432  1.81973e-06  -0.00059876 
         950     0.173145    0.0467788  1.97945e-06 -0.000598759 
         950     0.180435     0.048756  2.14947e-06 -0.000598758 
         950     0.187875    0.0507744  2.33019e-06 -0.000598757 
         950     0.195465    0.0528342  2.52205e-06 -0.000598756 
         950     0.203205    0.0549354   2.7255e-06 -0.000598755 
         950     0.211096    0.0570782  2.94103e-06 -0.000598754 
         950     0.219137    0.0592625  3.16906e-06 -0.000598753 
         950     0.227328    0.0614883  3.41008e-06 -0.000598752 
         950      0.23567    0.0637558  3.66459e-06 -0.000598751 
         950     0.244162    0.0660649  3.93306e-06 -0.000598749 
         950     0.252804    0.0684156  4.21598e-06 -0.000598748 
         950     0.261597    0.0708082  4.51389e-06 -0.000598747 
         950      0.27054    0.0732425  4.82728e-06 -0.000598746 
         950     0.279633    0.0757184  5.15668e-06 -0.000598745 
         950     0.288876    0.0782361   5.5026e-06 -0.000598744 
         950      0.29827    0.0807958  5.86562e-06 -0.000598742 
         950     0.307814    0.0833973  6.24626e-06 -0.000598741 
         950     0.317509    0.0860409  6.64512e-06  -0.00059874 
         950     0.327353    0.0887261  7.06267e-06 -0.000598739 
         950     0.337348    0.0914535  7.49959e-06 -0.000598737 
         950     0.347493    0.0942229  7.95641e-06 -0.000598736 
         950     0.357789    0.0970344  8.43377e-06 -0.000598735 
         950     0.368235     0.099888  8.93222e-06 -0.000598733 
         950     0.378831     0.102784  9.45236e-06 -0.000598732 
         950     0.389577     0.105721   9.9948e-06  -0.00059873 
         950     0.400474     0.108701  1.05602e-05 -0.000598729 
         950     0.411521     0.111723  1.11492e-05 -0.000598728 
         950     0.422719     0.114788  1.17624e-05 -0.000598726 
         950     0.434066     0.117894  1.24003e-05 -0.000598725 
         950     0.445564     0.121043  1.30638e-05 -0.000598723 
         950     0.457213     0.124235  1.37535e-05 -0.000598722 
         950     0.469011     0.127468  1.44699e-05  -0.00059872 
         950      0.48096     0.130744  1.52139e-05 -0.000598719 
         950     0.493059     0.134062  1.59861e-05 -0.000598717 
         950     0.505309     0.137423  1.67871e-05 -0.000598715 
         950     0.517708     0.140825  1.76177e-05 -0.000598714 
         950     0.530258     0.144271  1.84785e-05 -0.000598712 
         950     0.542959     0.147758  1.93704e-05  -0.00059871 
         950     0.555809     0.151288  2.02938e-05 -0.000598709 
         950      0.56881      0.15486  2.12497e-05 -0.000598707 
         950     0.581962     0.158475  2.22388e-05 -0.000598705 
         950     0.595263     0.162132  2.32616e-05 -0.000598704 
         950     0.608715     0.165832  2.43192e-05 -0.000598702 
         950     0.622317     0.169573  2.54123e-05   -0.0005987 
         950      0.63607     0.173357  2.65415e-05 -0.000598698 
         950     0.649972     0.177184  2.77069e-05 -0.000598697 
         950     0.664026     0.181052  2.89101e-05 -0.000598695 
         950     0.678229     0.184963  3.01515e-05 -0.000598693 
         950     0.692583     0.188916  3.14322e-05 -0.000598691 
         950     0.707087     0.192911   3.2753e-05 -0.000598689 
         950     0.721741     0.196948  3.41146e-05 -0.000598687 
         950     0.736545     0.201027  3.55177e-05 -0.000598685 
         950       0.7515     0.205148  3.69632e-05 -0.000598683 
         950     0.766605     0.209311  3.84517e-05 -0.000598681 
         950     0.781861     0.213516  3.99841e-05  -0.00059868 
         950     0.797267     0.217762   4.1561e-05 -0.000598678 
         950     0.812823      0.22205  4.31832e-05 -0.000598676 
         950     0.828529      0.22638  4.48515e-05 -0.000598673 
         950     0.844386     0.230751  4.65667e-05 -0.000598671 
         950     0.860393     0.235163  4.83297e-05 -0.000598669 
         950      0.87655     0.239617  5.01412e-05 -0.000598667 
         950     0.892858     0.244111  5.20022e-05 -0.000598665 
         950     0.909315     0.248646  5.39133e-05 -0.000598663 
         950     0.925924     0.253223  5.58757e-05 -0.000598661 
         950     0.942682     0.257839  5.78899e-05 -0.000598659 
         950     0.959591     0.262497  5.99568e-05 -0.000598657 
         950      0.97665     0.267194  6.20773e-05 -0.000598654 
         950     0.993859     0.271932   6.4252e-05 -0.000598652 
         950      1.01122     0.276709  6.64818e-05  -0.00059865 
         950      1.02873     0.281526  6.87673e-05 -0.000598648 
         950      1.04639     0.286382  7.11094e-05 -0.000598646 
         950       1.0642     0.291278  7.35087e-05 -0.000598643 
         950      1.08216     0.296212   7.5966e-05 -0.000598641 
         950      1.10027     0.301185  7.84819e-05 -0.000598639 
         950      1.11853     0.306197  8.10572e-05 -0.000598636 
         950      1.13695     0.311246  8.36928e-05 -0.000598634 
         950      1.15551     0.316334  8.63894e-05 -0.000598632 
         950      1.17422     0.321458  8.91478e-05 -0.000598629 
         950      1.19308      0.32662  9.19689e-05 -0.000598627 
         950      1.21209     0.331819  9.48536e-05 -0.000598624 
         950      1.23126     0.337053  9.78025e-05 -0.000598622 
         950      1.25057     0.342324  0.000100816 -0.000598619 
         950      1.27004     0.347631  0.000103896 -0.000598617 
         950      1.28965     0.352972   0.00010704 -0.000598615 
         950      1.30941     0.358349   0.00011025 -0.000598612 
         950      1.32933     0.363759  0.000113522  -0.00059861 
         950      1.34939     0.369204  0.000116872 -0.000598608 
         950      1.36961     0.374681   0.00012029 -0.000598605 
         950      1.38997     0.380192  0.000123775 -0.000598602 
         950      1.41049     0.385734   0.00012733 -0.000598599 
         950      1.43116     0.391309  0.000130954 -0.000598597 
         950      1.45197     0.396914  0.000134647 -0.000598594 
         950      1.47294      0.40255  0.000138411 -0.000598591 
         950      1.49406     0.408216  0.000142246 -0.000598588 
         950      1.51533     0.413911  0.000146152 -0.000598585 
         950      1.53674     0.419634  0.000150131 -0.000598582 
         950      1.55831     0.425386  0.000154182 -0.000598579 
         950      1.58003     0.431164  0.000158307 -0.000598577 
         950       1.6019     0.436969  0.000162505 -0.000598574 
         950      1.62392       0.4428  0.000166777 -0.000598572 
         950      1.64609     0.448656  0.000171123 -0.000598569 
         950      1.66841     0.454536  0.000175543 -0.000598567 
         950      1.69088     0.460439  0.000180038 -0.000598564 
         950       1.7135     0.466364  0.000184607 -0.000598562 
         950      1.73627     0.472312  0.000189251 -0.000598559 
         950      1.75919     0.478279   0.00019397 -0.000598556 
         950      1.78226     0.484267  0.000198763 -0.000598553 
         950      1.80548     0.490273  0.000203631  -0.00059855 
         950      1.82885     0.496297  0.000208574 -0.000598547 
         950      1.85237     0.502337   0.00021359 -0.000598544 
         950      1.87605     0.508394   0.00021868 -0.000598541 
         950      1.89987     0.514465  0.000223844 -0.000598537 
         950      1.92384     0.520549  0.000229081 -0.000598534 
         950      1.94796     0.526646  0.000234391 -0.000598531 
         950      1.97224     0.532755  0.000239774 -0.000598527 
         950      1.99666     0.538873  0.000245228 -0.000598523 
         950      2.02124     0.545001  0.000250754  -0.00059852 
         950      2.04596     0.551136  0.000256351 -0.000598516 
         950      2.07084     0.557278  0.000262019 -0.000598513 
         950      2.09586     0.563425  0.000267757 -0.000598509 
         950      2.12104     0.569576  0.000273564 -0.000598506 
         950      2.14636      0.57573   0.00027944 -0.000598503 
         950      2.17184     0.581885  0.000285383 -0.000598499 
         950      2.19746      0.58804  0.000291394 -0.000598496 
         950      2.22324     0.594193   0.00029747 -0.000598493 
         950      2.24917     0.600344  0.000303612  -0.00059849 
         950      2.27524     0.606491  0.000309819 -0.000598487 
         950      2.30147     0.612632  0.000316088 -0.000598484 
         950      2.32785     0.618765  0.000322419 -0.000598481 
         950      2.35438      0.62489   0.00032881 -0.000598477 
         950      2.38105     0.631004  0.000335261 -0.000598474 
         950      2.40788     0.637107  0.000341769  -0.00059847 
         950      2.43486     0.643197  0.000348332 -0.000598466 
         950      2.46199     0.649272  0.000354949 -0.000598461 
         950      2.48927      0.65533  0.000361618 -0.000598457 
         950       2.5167      0.66137  0.000368337 -0.000598452 
         950      2.54428     0.667391  0.000375105 -0.000598446 
         950      2.57201     0.673391  0.000381919 -0.000598441 
         950      2.59989     0.679367  0.000388778 -0.000598436 
         950      2.62792      0.68532  0.000395681 -0.000598431 
         950       2.6561     0.691246  0.000402626 -0.000598428 
         950      2.68444     0.697144  0.000409614 -0.000598425 
         950      2.71292     0.703013  0.000416645 -0.000598425 
         950      2.74155      0.70885  0.000423721 -0.000598428 
         950      2.77033     0.714656  0.000430743 -0.000598417 
         950      2.79927     0.720426   0.00043783 -0.000598404 
         950      2.82835     0.726161  0.000444979 -0.000598394 
         950      2.85758     0.731858  0.000452157 -0.000598386 
         950      2.88697     0.737515  0.000459349 -0.000598378 
         950       2.9165     0.743131  0.000466552  -0.00059837 
         950      2.94618     0.748705   0.00047377 -0.000598363 
         950      2.97602     0.754235  0.000481006 -0.000598356 
         950        3.006     0.759719  0.000488262 -0.000598351 
         950      3.03614     0.765155  0.000495535 -0.000598346 
         950      3.06642     0.770542  0.000502822 -0.000598344 
         950      3.09686     0.775879  0.000510114 -0.000598344 
         950      3.12744     0.781164  0.000517402 -0.000598346 
         950      3.15818     0.786395  0.000524677  -0.00059835 
         950      3.18907     0.791571  0.000531931 -0.000598356 
         950      3.22011     0.796691   0.00053916 -0.000598363 
         950      3.25129     0.801753  0.000546364 -0.000598371 
         950      3.28263     0.806755  0.000553547 -0.000598379 
         950      3.31412     0.811697   0.00056072 -0.000598389 
         950      3.34576     0.816577  0.000567887 -0.000598399 
         950      3.37754     0.821393  0.000575018 -0.000598401 
         950      3.40948     0.826145  0.000582134 -0.000598399 
         950      3.44157     0.830832  0.000589232 -0.000598394 
         950      3.47381     0.835451  0.000596307 -0.000598386 
         950       3.5062     0.840003  0.000603354 -0.000598376 
         950      3.53874     0.844485  0.000610368 -0.000598363 
         950      3.57143     0.848898  0.000617341 -0.000598349 
         950      3.60427      0.85324  0.000624266 -0.000598333 
         950      3.63726      0.85751  0.000631135 -0.000598317 
         950       3.6704     0.861708  0.000637939 -0.000598302 
         950       3.7037     0.865832  0.000644672 -0.000598288 
         950      3.73714     0.869882  0.000651329 -0.000598276 
         950      3.77073     0.873857  0.000657911 -0.000598267 
         950      3.80447     0.877756  0.000664424 -0.000598261 
         950      3.83837      0.88158  0.000670887 -0.000598257 
         950      3.87241     0.885327  0.000677336 -0.000598252 
         950       3.9066     0.888997  0.000683687  -0.00059824 
         950      3.94095     0.892591   0.00068989 -0.000598232 
         950      3.97544     0.896106  0.000696093 -0.000598234 
         950      4.01008     0.899544  0.000702246 -0.000598243 
         950      4.04488     0.902903  0.000708321 -0.000598254 
         950      4.07982     0.906185  0.000714302 -0.000598263 
         950      4.11492     0.909389  0.000720184 -0.000598268 
         950      4.15016     0.912516  0.000725965 -0.000598267 
         950      4.18556     0.915565  0.000731646  -0.00059826 
         950       4.2211     0.918536   0.00073723 -0.000598247 
         950       4.2568      0.92143  0.000742718 -0.000598231 
         950      4.29265     0.924247  0.000748111 -0.000598212 
         950      4.32864     0.926987  0.000753411 -0.000598192 
         950      4.36479     0.929651  0.000758617 -0.000598175 
         950      4.40109     0.932239  0.000763731 -0.000598161 
         950      4.43754     0.934751  0.000768754 -0.000598151 
         950      4.47413     0.937189  0.000773686 -0.000598147 
         950      4.51088     0.939553  0.000778527 -0.000598146 
         950      4.54778     0.941844  0.000783277 -0.000598149 
         950      4.58483     0.944063  0.000787931 -0.000598152 
         950      4.62203     0.946211  0.000792486 -0.000598152 
         950      4.65938     0.948288  0.000796934 -0.000598147 
         950      4.69688     0.950296  0.000801267 -0.000598134 
         950      4.73453     0.952235   0.00080548 -0.000598114 
         950      4.77233     0.954107  0.000809571 -0.000598091 
         950      4.81028     0.955912  0.000813555 -0.000598073 
         950      4.84838     0.957651   0.00081747 -0.000598079 
         950      4.88663     0.959327  0.000821401 -0.000598138 
         950      4.92504      0.96094  0.000825304 -0.000598259 
         950      4.96359     0.962489  0.000828891 -0.000598329 
         950      5.00229     0.963979    0.0008324 -0.000598363 
         950      5.04114      0.96541  0.000835823 -0.000598368 
         950      5.08014     0.966784  0.000839162 -0.000598349 
         950       5.1193     0.968101  0.000842424 -0.000598312 
         950       5.1586     0.969363  0.000845616 -0.000598263 
         950      5.19806     0.970571  0.000848736  -0.00059821 
         950      5.23766     0.971726   0.00085177 -0.000598161 
         950      5.27741     0.972829  0.000854687 -0.000598133 
         950      5.31732     0.973883  0.000857436 -0.000598143 
         950      5.35737     0.974889  0.000859937 -0.000598217 
         950      5.39758     0.975849  0.000862447 -0.000598243 
         950      5.43793     0.976763  0.000865255 -0.000598091 
         950      5.47844     0.977634   0.00086777 -0.000598013 
         950       5.5191     0.978462  0.000870086 -0.000597984 
         950       5.5599     0.979249  0.000872271 -0.000597983 
         950      5.60086     0.979997  0.000874376 -0.000597996 
         950      5.64197     0.980706  0.000876429 -0.000598013 
         950      5.68322     0.981379  0.000878447 -0.000598027 
         950      5.72463     0.982015  0.000880435 -0.000598032 
         950      5.76619     0.982618  0.000882391 -0.000598029 
         950       5.8079     0.983188  0.000884305 -0.000598016 
         950      5.84976     0.983726  0.000886168 -0.000597995 
         950      5.89177     0.984234  0.000887969 -0.000597969 
         950      5.93393     0.984713  0.000889697 -0.000597939 
         950      5.97623     0.985164  0.000891346 -0.000597908 
         950      6.01869     0.985589  0.000892913 -0.000597878 
         950       6.0613     0.985989  0.000894397 -0.000597853 
         950      6.10406     0.986364  0.000895804 -0.000597832 
         950      6.14698     0.986716  0.000897141 -0.000597818 
         950      6.19004     0.987046   0.00089842  -0.00059781 
         950      6.23325     0.987356  0.000899654 -0.000597808 
         950      6.27661     0.987646  0.000900855  -0.00059781 
         950      6.32012     0.987916  0.000902034 -0.000597815 
         950      6.36378     0.988169  0.000903202 -0.000597822 
         950      6.40759     0.988406  0.000904361 -0.000597826 
         950      6.45156     0.988626  0.000905513 -0.000597828 
         950      6.49567     0.988831  0.000906651 -0.000597823 
         950      6.53993     0.989022  0.000907762 -0.000597811 
         950      6.58435     0.989199  0.000908832 -0.000597792 
         950      6.62891     0.989364  0.000909843 -0.000597765 
         950      6.67363     0.989516  0.000910784 -0.000597732 
         950      6.71849     0.989658  0.000911652 -0.000597698 
         950      6.76351     0.989789  0.000912466 -0.000597668 
         950      6.80867      0.98991  0.000913278  -0.00059765 
         950      6.85399     0.990023  0.000914191 -0.000597655 
         950      6.89945     0.990127  0.000915292 -0.000597701 
         950      6.94507     0.990221   0.00091591 -0.000597779 
         950      6.99083     0.990308  0.000916605 -0.000597827 
         950      7.03675     0.990389  0.000917371  -0.00059785 
         950      7.08282     0.990463  0.000918189 -0.000597858 
         950      7.12904     0.990532  0.000919024 -0.000597862 
         950       7.1754     0.990595   0.00091981 -0.000597879 
         950      7.22192     0.990652  0.000920436 -0.000597929 
         950      7.26859     0.990705  0.000920973 -0.000597999 
         950      7.31541     0.990752  0.000921985 -0.000597975 
         950      7.36238     0.990796  0.000922912 -0.000597948 
         950       7.4095     0.990836   0.00092375 -0.000597921 
         950      7.45677     0.990873  0.000924506 -0.000597896 
         950      7.50418     0.990906  0.000925191 -0.000597873 
         950      7.55175     0.990936  0.000925819 -0.000597853 
         950      7.59948     0.990963  0.000926407 -0.000597837 
         950      7.64735     0.990988   0.00092697 -0.000597824 
         950      7.69537      0.99101  0.000927524 -0.000597815 
         950      7.74354      0.99103  0.000928081 -0.000597807 
         950      7.79186     0.991048  0.000928649 -0.000597802 
         950      7.84033     0.991064  0.000929237 -0.000597797 
         950      7.88895     0.991079  0.000929849 -0.000597792 
         950      7.93773     0.991092  0.000930484 -0.000597786 
         950      7.98665     0.991104  0.000931142 -0.000597779 
         950      8.03572     0.991116   0.00093182 -0.000597769 
         950      8.08494     0.991126  0.000932512 -0.000597757 
         950      8.13432     0.991135  0.000933213 -0.000597741 
         950      8.18384     0.991144  0.000933915 -0.000597721 
         950      8.23352     0.991151  0.000934613 -0.000597698 
         950      8.28334     0.991158  0.000935301 -0.000597671 
         950      8.33332     0.991165  0.000935975  -0.00059764 
         950      8.38344      0.99117  0.000936631 -0.000597606 
         950      8.43372     0.991175  0.000937269 -0.000597569 
         950      8.48414      0.99118  0.000937889 -0.000597529 
         950      8.53472     0.991184  0.000938494 -0.000597488 
         950      8.58544     0.991187  0.000939088 -0.000597447 
         950      8.63632      0.99119  0.000939677 -0.000597405 
         950      8.68735     0.991192  0.000940248 -0.000597339 
         950      8.73852     0.991193  0.000940812 -0.000597275 
         950      8.78985     0.991195  0.000941387 -0.000597219 
         950      8.84133     0.991196  0.000941984 -0.000597171 
         950      8.89296     0.991197   0.00094261  -0.00059713 
         950      8.94474     0.991199  0.000943274 -0.000597095 
         950      8.99667       0.9912  0.000943978 -0.000597064 
         950      9.04875     0.991202  0.000944718 -0.000597036 
         950      9.10097     0.991203  0.000945485 -0.000597011 
         950      9.15335     0.991205  0.000946265 -0.000596989 
         950      9.20588     0.991206  0.000947036 -0.000596969 
         950      9.25856     0.991208  0.000947774 -0.000596949 
         950      9.31139     0.991209  0.000948452  -0.00059693 
         950      9.36438     0.991209   0.00094905 -0.000596911 
         950      9.41751      0.99121  0.000949557 -0.000596888 
         950      9.47079      0.99121  0.000949985 -0.000596862 
         950      9.52422      0.99121  0.000950379 -0.000596826 
         950       9.5778     0.991211  0.000950837 -0.000596778 
         950      9.63153     0.991212  0.000951528  -0.00059671 
         950      9.68542     0.991213  0.000952723 -0.000596613 
         950      9.73945     0.991215   0.00095284 -0.000596696 
         950      9.79363     0.991216  0.000953232  -0.00059679 
         950      9.84797     0.991217  0.000953982   -0.0005969 
         950      9.90245     0.991218  0.000954999 -0.000597061 
         950      9.95708     0.991221  0.000956242 -0.000597305 
         950      10.0119     0.991218  0.000956692 -0.000597295 
         950      10.0668     0.991217  0.000957249 -0.000597276 
         950      10.1219     0.991217  0.000957889 -0.000597256 
         950      10.1771     0.991217  0.000958574 -0.000597236 
         950      10.2325     0.991217  0.000959276 -0.000597215 
         950       10.288     0.991218  0.000959979 -0.000597193 
         950      10.3437     0.991219  0.000960671 -0.000597172 
         950      10.3996      0.99122   0.00096135  -0.00059715 
         950      10.4556     0.991221  0.000962013 -0.000597129 
         950      10.5117     0.991222  0.000962663 -0.000597108 
         950       10.568     0.991222  0.000963305 -0.000597087 
         950      10.6244     0.991223  0.000963943 -0.000597067 
         950       10.681     0.991223  0.000964581 -0.000597048 
         950      10.7377     0.991224  0.000965224 -0.000597029 
         950      10.7946     0.991224  0.000965875 -0.000597011 
         950      10.8517     0.991224  0.000966537 -0.000596993 
         950      10.9089     0.991225  0.000967212 -0.000596977 
         950      10.9662     0.991225    0.0009679 -0.000596962 
         950      11.0237     0.991226    0.0009686 -0.000596947 
         950      11.0813     0.991226  0.000969312 -0.000596933 
         950      11.1391     0.991226  0.000970033  -0.00059692 
         950      11.1971     0.991227  0.000970761 -0.000596907 
         950      11.2552     0.991228  0.000971493 -0.000596896 
         950      11.3134     0.991228  0.000972226 -0.000596884 
         950      11.3718     0.991229  0.000972958 -0.000596874 
         950      11.4303     0.991229  0.000973686 -0.000596863 
         950       11.489      0.99123   0.00097441 -0.000596853 
         950      11.5479      0.99123  0.000975128 -0.000596844 
         950      11.6069     0.991231   0.00097584 -0.000596834 
         950       11.666     0.991231  0.000976547 -0.000596824 
         950      11.7253     0.991232  0.000977249 -0.000596815 
         950      11.7847     0.991232  0.000977949 -0.000596806 
         950      11.8443     0.991232  0.000978648 -0.000596796 
         950      11.9041     0.991232   0.00097935 -0.000596787 
         950       11.964     0.991233  0.000980057 -0.000596778 
         950       12.024     0.991233  0.000980771 -0.000596769 
         950      12.0842     0.991233  0.000981493 -0.000596761 
         950      12.1446     0.991233  0.000982225 -0.000596754 
         950       12.205     0.991234  0.000982966 -0.000596747 
         950      12.2657     0.991234  0.000983717 -0.000596742 
         950      12.3265     0.991234  0.000984474 -0.000596738 
         950      12.3874     0.991235  0.000985235 -0.000596736 
         950      12.4485     0.991235  0.000985996 -0.000596737 
         950      12.5098     0.991235  0.000986754 -0.000596741 
         950      12.5712     0.991236  0.000987506 -0.000596748 
         950      12.6327     0.991236  0.000988252 -0.000596759 
         950      12.6944     0.991237  0.000988995 -0.000596775 
         950      12.7563     0.991238  0.000989746 -0.000596796 
         950      12.8183      0.99124  0.000990523 -0.000596824 
         950      12.8804     0.991243  0.000991358 -0.000596858 
         950      12.9427     0.991246  0.000992285 -0.000596891 
         950      13.0052     0.991245  0.000993051  -0.00059682 
         950      13.0678     0.991243  0.000993814 -0.000596778 
         950      13.1305     0.991241   0.00099455 -0.000596754 
         950      13.1934     0.991238  0.000995254 -0.000596739 
         950      13.2565     0.991236   0.00099594 -0.000596729 
         950      13.3197     0.991235  0.000996631 -0.000596719 
         950       13.383     0.991236  0.000997353 -0.000596708 
         950      13.4465     0.991238  0.000998126 -0.000596692 
         950      13.5102     0.991241  0.000998953  -0.00059667 
         950       13.574     0.991246  0.000999808 -0.000596637 
         950      13.6379     0.991251   0.00100062 -0.000596589 
         950       13.702     0.991254   0.00100125 -0.000596519 
         950      13.7663     0.991255   0.00100159 -0.000596433 
         950      13.8307     0.991249   0.00100287 -0.000596523 
         950      13.8952     0.991246   0.00100376 -0.000596567 
         950        13.96     0.991244   0.00100447 -0.000596575 
         950      14.0248     0.991244   0.00100512 -0.000596557 
         950      14.0898     0.991244   0.00100579 -0.000596521 
         950       14.155     0.991245   0.00100651 -0.000596475 
         950      14.2203     0.991246    0.0010073 -0.000596426 
         950      14.2857     0.991247   0.00100814 -0.000596379 
         950      14.3513     0.991248   0.00100902 -0.000596338 
         950      14.4171     0.991249   0.00100993 -0.000596307 
         950       14.483      0.99125   0.00101084 -0.000596286 
         950      14.5491     0.991251   0.00101175 -0.000596278 
         950      14.6153     0.991252   0.00101263 -0.000596281 
         950      14.6816     0.991252   0.00101349 -0.000596295 
         950      14.7481     0.991253   0.00101432 -0.000596318 
         950      14.8148     0.991253   0.00101512 -0.000596348 
         950      14.8816     0.991254    0.0010159 -0.000596383 
         950      14.9486     0.991254   0.00101666  -0.00059642 
         950      15.0157     0.991254   0.00101741 -0.000596458 
         950      15.0829     0.991255   0.00101816 -0.000596495 
         950      15.1503     0.991255    0.0010189  -0.00059653 
         950      15.2179     0.991256   0.00101965 -0.000596565 
         950      15.2856     0.991256   0.00102042   -0.0005966 
         950      15.3535     0.991256   0.00102121  -0.00059664 