Variables = x, y, u, v, p

Zone, I=1000, F=POINT
         500            0  4.64375e-15 -2.90093e-25  -0.00551818 
         500      7.5e-05  2.61271e-05   6.6788e-13  -0.00551818 
         500       0.0003  0.000104509  1.07056e-11  -0.00551818 
         500     0.000676  0.000235494  5.43757e-11  -0.00551818 
         500     0.001202  0.000418737  1.71936e-10  -0.00551818 
         500     0.001878  0.000654239  4.19726e-10  -0.00551818 
         500     0.002705  0.000942352   8.7079e-10  -0.00551818 
         500     0.003682   0.00128273  1.61341e-09  -0.00551818 
         500     0.004809   0.00167538  2.75221e-09  -0.00551818 
         500     0.006087   0.00212065  4.40932e-09  -0.00551818 
         500     0.007515   0.00261821  6.72069e-09  -0.00551818 
         500     0.009093   0.00316805  9.83921e-09  -0.00551817 
         500     0.010821   0.00377018  1.39338e-08  -0.00551817 
         500       0.0127   0.00442496  1.91925e-08  -0.00551817 
         500     0.014729   0.00513206  2.58142e-08  -0.00551817 
         500     0.016908   0.00589147   3.4016e-08  -0.00551817 
         500     0.019238   0.00670355  4.40358e-08  -0.00551817 
         500     0.021718   0.00756798  5.61193e-08  -0.00551817 
         500     0.024348   0.00848475  7.05318e-08  -0.00551817 
         500     0.027129   0.00945423   8.7561e-08  -0.00551817 
         500      0.03006    0.0104761  1.07499e-07  -0.00551817 
         500     0.033141    0.0115503   1.3066e-07  -0.00551817 
         500     0.036372     0.012677  1.57372e-07  -0.00551817 
         500     0.039754    0.0138564   1.8799e-07  -0.00551817 
         500     0.043286    0.0150882  2.22869e-07  -0.00551817 
         500     0.046968    0.0163724  2.62384e-07  -0.00551817 
         500     0.050801    0.0177095  3.06942e-07  -0.00551816 
         500     0.054784    0.0190991  3.56942e-07  -0.00551816 
         500     0.058917    0.0205411  4.12808e-07  -0.00551816 
         500     0.063201     0.022036  4.74998e-07  -0.00551816 
         500     0.067635    0.0235834  5.43954e-07  -0.00551816 
         500     0.072219    0.0251833   6.2015e-07  -0.00551816 
         500     0.076953    0.0268359  7.04074e-07  -0.00551816 
         500     0.081838    0.0285413   7.9625e-07  -0.00551816 
         500     0.086873    0.0302994  8.97184e-07  -0.00551816 
         500     0.092058      0.03211  1.00741e-06  -0.00551816 
         500     0.097394    0.0339737   1.1275e-06  -0.00551815 
         500      0.10288      0.03589    1.258e-06  -0.00551815 
         500     0.108516     0.037859  1.39951e-06  -0.00551815 
         500     0.114303    0.0398811  1.55264e-06  -0.00551815 
         500      0.12024    0.0419559  1.71799e-06  -0.00551815 
         500     0.126327    0.0440835  1.89619e-06  -0.00551815 
         500     0.132564    0.0462638  2.08787e-06  -0.00551815 
         500     0.138952    0.0484973  2.29375e-06  -0.00551814 
         500      0.14549    0.0507836  2.51445e-06  -0.00551814 
         500     0.152178    0.0531227  2.75069e-06  -0.00551814 
         500     0.159017     0.055515   3.0032e-06  -0.00551814 
         500     0.166006    0.0579603  3.27268e-06  -0.00551814 
         500     0.173145    0.0604584  3.55986e-06  -0.00551814 
         500     0.180435    0.0630098  3.86556e-06  -0.00551813 
         500     0.187875    0.0656142  4.19049e-06  -0.00551813 
         500     0.195465    0.0682716  4.53544e-06  -0.00551813 
         500     0.203205    0.0709819  4.90121e-06  -0.00551813 
         500     0.211096    0.0737456  5.28866e-06  -0.00551813 
         500     0.219137    0.0765624  5.69858e-06  -0.00551812 
         500     0.227328    0.0794322  6.13182e-06  -0.00551812 
         500      0.23567    0.0823554  6.58931e-06  -0.00551812 
         500     0.244162    0.0853317  7.07187e-06  -0.00551812 
         500     0.252804    0.0883611  7.58038e-06  -0.00551812 
         500     0.261597     0.091444  8.11579e-06  -0.00551811 
         500      0.27054      0.09458  8.67892e-06  -0.00551811 
         500     0.279633    0.0977692  9.27093e-06  -0.00551811 
         500     0.288876     0.101012  9.89266e-06  -0.00551811 
         500      0.29827     0.104307  1.05451e-05  -0.00551811 
         500     0.307814     0.107656   1.1229e-05   -0.0055181 
         500     0.317509     0.111059  1.19455e-05   -0.0055181 
         500     0.327353     0.114514  1.26956e-05   -0.0055181 
         500     0.337348     0.118023  1.34804e-05   -0.0055181 
         500     0.347493     0.121585  1.43008e-05  -0.00551809 
         500     0.357789     0.125201  1.51582e-05  -0.00551809 
         500     0.368235     0.128869  1.60534e-05  -0.00551809 
         500     0.378831     0.132591  1.69876e-05  -0.00551809 
         500     0.389577     0.136366  1.79617e-05  -0.00551808 
         500     0.400474     0.140194   1.8977e-05  -0.00551808 
         500     0.411521     0.144076  2.00345e-05  -0.00551808 
         500     0.422719     0.148011  2.11353e-05  -0.00551808 
         500     0.434066     0.151998  2.22804e-05  -0.00551807 
         500     0.445564     0.156039   2.3471e-05  -0.00551807 
         500     0.457213     0.160133  2.47085e-05  -0.00551807 
         500     0.469011      0.16428  2.59938e-05  -0.00551807 
         500      0.48096      0.16848  2.73284e-05  -0.00551806 
         500     0.493059     0.172732  2.87133e-05  -0.00551806 
         500     0.505309     0.177038    3.015e-05  -0.00551806 
         500     0.517708     0.181396  3.16395e-05  -0.00551805 
         500     0.530258     0.185806   3.3183e-05  -0.00551805 
         500     0.542959      0.19027  3.47819e-05  -0.00551805 
         500     0.555809     0.194785   3.6437e-05  -0.00551805 
         500      0.56881     0.199353  3.81495e-05  -0.00551804 
         500     0.581962     0.203974  3.99208e-05  -0.00551804 
         500     0.595263     0.208646   4.1752e-05  -0.00551804 
         500     0.608715      0.21337  4.36453e-05  -0.00551803 
         500     0.622317     0.218146  4.56035e-05  -0.00551803 
         500      0.63607     0.222974  4.76251e-05  -0.00551803 
         500     0.649972     0.227852  4.97104e-05  -0.00551802 
         500     0.664026     0.232783   5.1862e-05  -0.00551802 
         500     0.678229     0.237764  5.40812e-05  -0.00551802 
         500     0.692583     0.242797    5.637e-05  -0.00551801 
         500     0.707087      0.24788  5.87296e-05  -0.00551801 
         500     0.721741     0.253013  6.11614e-05  -0.00551801 
         500     0.736545     0.258197  6.36666e-05    -0.005518 
         500       0.7515      0.26343  6.62466e-05    -0.005518 
         500     0.766605     0.268713  6.89023e-05    -0.005518 
         500     0.781861     0.274046   7.1635e-05  -0.00551799 
         500     0.797267     0.279428  7.44459e-05  -0.00551799 
         500     0.812823     0.284858  7.73359e-05  -0.00551799 
         500     0.828529     0.290336  8.03065e-05  -0.00551798 
         500     0.844386     0.295863   8.3359e-05  -0.00551798 
         500     0.860393     0.301437  8.64945e-05  -0.00551798 
         500      0.87655     0.307058  8.97144e-05  -0.00551797 
         500     0.892858     0.312727  9.30201e-05  -0.00551797 
         500     0.909315     0.318441  9.64127e-05  -0.00551796 
         500     0.925924     0.324201  9.98938e-05  -0.00551796 
         500     0.942682     0.330007  0.000103464  -0.00551796 
         500     0.959591     0.335857  0.000107126  -0.00551795 
         500      0.97665     0.341752  0.000110879  -0.00551795 
         500     0.993859      0.34769  0.000114725  -0.00551795 
         500      1.01122     0.353672  0.000118666  -0.00551794 
         500      1.02873     0.359696  0.000122701  -0.00551794 
         500      1.04639     0.365762  0.000126832  -0.00551793 
         500       1.0642     0.371869  0.000131061  -0.00551793 
         500      1.08216     0.378017  0.000135386  -0.00551792 
         500      1.10027     0.384204  0.000139811  -0.00551792 
         500      1.11853     0.390431  0.000144334  -0.00551792 
         500      1.13695     0.396695  0.000148958  -0.00551791 
         500      1.15551     0.402997  0.000153684  -0.00551791 
         500      1.17422     0.409336  0.000158511   -0.0055179 
         500      1.19308      0.41571  0.000163442   -0.0055179 
         500      1.21209     0.422119  0.000168478   -0.0055179 
         500      1.23126     0.428562  0.000173619  -0.00551789 
         500      1.25057     0.435037  0.000178865  -0.00551789 
         500      1.27004     0.441545  0.000184218  -0.00551788 
         500      1.28965     0.448083  0.000189675  -0.00551788 
         500      1.30941      0.45465  0.000195233  -0.00551787 
         500      1.32933     0.461246  0.000200889  -0.00551787 
         500      1.34939      0.46787  0.000206673  -0.00551786 
         500      1.36961     0.474519  0.000212563  -0.00551786 
         500      1.38997     0.481194  0.000218559  -0.00551785 
         500      1.41049     0.487892  0.000224661  -0.00551785 
         500      1.43116     0.494612  0.000230868  -0.00551784 
         500      1.45197     0.501354  0.000237181  -0.00551784 
         500      1.47294     0.508114    0.0002436  -0.00551783 
         500      1.49406     0.514893  0.000250126  -0.00551783 
         500      1.51533     0.521689  0.000256757  -0.00551782 
         500      1.53674       0.5285  0.000263495  -0.00551782 
         500      1.55831     0.535324  0.000270337  -0.00551781 
         500      1.58003      0.54216  0.000277286  -0.00551781 
         500       1.6019     0.549007  0.000284338   -0.0055178 
         500      1.62392     0.555862  0.000291494   -0.0055178 
         500      1.64609     0.562725  0.000298754  -0.00551779 
         500      1.66841     0.569592  0.000306116  -0.00551779 
         500      1.69088     0.576463  0.000313578  -0.00551778 
         500       1.7135     0.583336   0.00032114  -0.00551778 
         500      1.73627     0.590209    0.0003288  -0.00551777 
         500      1.75919     0.597079  0.000336557  -0.00551777 
         500      1.78226     0.603946  0.000344409  -0.00551776 
         500      1.80548     0.610806  0.000352353  -0.00551776 
         500      1.82885     0.617659  0.000360389  -0.00551775 
         500      1.85237     0.624502  0.000368514  -0.00551775 
         500      1.87605     0.631333  0.000376725  -0.00551774 
         500      1.89987      0.63815  0.000385021  -0.00551773 
         500      1.92384      0.64495  0.000393398  -0.00551773 
         500      1.94796     0.651733  0.000401855  -0.00551772 
         500      1.97224     0.658494  0.000410389  -0.00551772 
         500      1.99666     0.665234  0.000418996  -0.00551771 
         500      2.02124     0.671949  0.000427674   -0.0055177 
         500      2.04596     0.678636   0.00043642   -0.0055177 
         500      2.07084     0.685295  0.000445232  -0.00551769 
         500      2.09586     0.691922  0.000454105  -0.00551769 
         500      2.12104     0.698515  0.000463037  -0.00551768 
         500      2.14636     0.705073  0.000472024  -0.00551767 
         500      2.17184     0.711592  0.000481063  -0.00551767 
         500      2.19746     0.718071   0.00049015  -0.00551766 
         500      2.22324     0.724507  0.000499282  -0.00551766 
         500      2.24917     0.730898  0.000508456  -0.00551765 
         500      2.27524     0.737242  0.000517666  -0.00551765 
         500      2.30147     0.743537  0.000526909  -0.00551764 
         500      2.32785     0.749779  0.000536181  -0.00551764 
         500      2.35438     0.755968  0.000545478  -0.00551763 
         500      2.38105     0.762101  0.000554794  -0.00551763 
         500      2.40788     0.768176  0.000564126  -0.00551763 
         500      2.43486      0.77419  0.000573468  -0.00551762 
         500      2.46199     0.780142  0.000582816  -0.00551762 
         500      2.48927     0.786029  0.000592164  -0.00551762 
         500       2.5167     0.791849  0.000601506  -0.00551762 
         500      2.54428     0.797601  0.000610838  -0.00551761 
         500      2.57201     0.803282  0.000620155  -0.00551762 
         500      2.59989      0.80889   0.00062945  -0.00551762 
         500      2.62792     0.814424  0.000638719  -0.00551762 
         500       2.6561     0.819882  0.000647958  -0.00551763 
         500      2.68444     0.825262  0.000657161  -0.00551764 
         500      2.71292     0.830562  0.000666326  -0.00551766 
         500      2.74155     0.835781  0.000675448  -0.00551768 
         500      2.77033     0.840918  0.000684492   -0.0055177 
         500      2.79927     0.845969  0.000693519   -0.0055177 
         500      2.82835     0.850934  0.000702527  -0.00551769 
         500      2.85758     0.855812  0.000711493  -0.00551768 
         500      2.88697     0.860602  0.000720398  -0.00551767 
         500       2.9165     0.865302  0.000729224  -0.00551765 
         500      2.94618     0.869911  0.000737958  -0.00551763 
         500      2.97602     0.874429  0.000746583  -0.00551761 
         500        3.006     0.878854  0.000755084  -0.00551759 
         500      3.03614     0.883186  0.000763495  -0.00551755 
         500      3.06642     0.887424  0.000771851  -0.00551748 
         500      3.09686     0.891568  0.000780064  -0.00551744 
         500      3.12744     0.895616  0.000788151  -0.00551742 
         500      3.15818     0.899568  0.000796122  -0.00551741 
         500      3.18907     0.903424  0.000803984  -0.00551741 
         500      3.22011     0.907183  0.000811738   -0.0055174 
         500      3.25129     0.910847  0.000819384   -0.0055174 
         500      3.28263     0.914413  0.000826917   -0.0055174 
         500      3.31412     0.917884  0.000834333   -0.0055174 
         500      3.34576     0.921258  0.000841624  -0.00551739 
         500      3.37754     0.924536  0.000848785  -0.00551739 
         500      3.40948     0.927718   0.00085581  -0.00551738 
         500      3.44157     0.930806  0.000862692  -0.00551736 
         500      3.47381     0.933799  0.000869427  -0.00551735 
         500       3.5062     0.936698  0.000876011  -0.00551734 
         500      3.53874     0.939504  0.000882443  -0.00551732 
         500      3.57143     0.942218  0.000888721  -0.00551731 
         500      3.60427     0.944841  0.000894845   -0.0055173 
         500      3.63726     0.947373  0.000900816  -0.00551729 
         500       3.6704     0.949816  0.000906636  -0.00551729 
         500       3.7037     0.952171  0.000912306  -0.00551728 
         500      3.73714      0.95444   0.00091783  -0.00551728 
         500      3.77073     0.956623  0.000923208  -0.00551728 
         500      3.80447     0.958722  0.000928441  -0.00551727 
         500      3.83837     0.960738   0.00093353  -0.00551727 
         500      3.87241     0.962674  0.000938475  -0.00551726 
         500       3.9066      0.96453  0.000943273  -0.00551725 
         500      3.94095     0.966309  0.000947923  -0.00551724 
         500      3.97544     0.968011  0.000952423  -0.00551722 
         500      4.01008      0.96964  0.000956773   -0.0055172 
         500      4.04488     0.971196  0.000960974  -0.00551718 
         500      4.07982     0.972681  0.000965033  -0.00551716 
         500      4.11492     0.974098  0.000968966  -0.00551714 
         500      4.15016     0.975448  0.000972798  -0.00551712 
         500      4.18556     0.976733   0.00097657  -0.00551712 
         500       4.2211     0.977955  0.000980064  -0.00551712 
         500       4.2568     0.979116  0.000983332  -0.00551711 
         500      4.29265     0.980218  0.000986544   -0.0055171 
         500      4.32864     0.981263  0.000989672  -0.00551709 
         500      4.36479     0.982253  0.000992698  -0.00551708 
         500      4.40109     0.983189  0.000995611  -0.00551707 
         500      4.43754     0.984074  0.000998406  -0.00551705 
         500      4.47413     0.984909   0.00100108  -0.00551704 
         500      4.51088     0.985698   0.00100363  -0.00551702 
         500      4.54778      0.98644   0.00100607    -0.005517 
         500      4.58483     0.987139    0.0010084  -0.00551698 
         500      4.62203     0.987796   0.00101063  -0.00551696 
         500      4.65938     0.988413   0.00101275  -0.00551693 
         500      4.69688     0.988993   0.00101479  -0.00551691 
         500      4.73453     0.989535   0.00101673  -0.00551688 
         500      4.77233     0.990044   0.00101859  -0.00551686 
         500      4.81028     0.990519   0.00102037  -0.00551684 
         500      4.84838     0.990963   0.00102208  -0.00551682 
         500      4.88663     0.991377   0.00102371   -0.0055168 
         500      4.92504     0.991762   0.00102528  -0.00551678 
         500      4.96359     0.992121   0.00102678  -0.00551677 
         500      5.00229     0.992455   0.00102821  -0.00551676 
         500      5.04114     0.992765   0.00102958  -0.00551675 
         500      5.08014     0.993052   0.00103089  -0.00551674 
         500       5.1193     0.993317   0.00103213  -0.00551672 
         500       5.1586     0.993563    0.0010333   -0.0055167 
         500      5.19806     0.993791    0.0010344  -0.00551666 
         500      5.23766     0.994001    0.0010354  -0.00551661 
         500      5.27741     0.994194    0.0010365  -0.00551655 
         500      5.31732     0.994372   0.00103752  -0.00551651 
         500      5.35737     0.994536   0.00103848  -0.00551648 
         500      5.39758     0.994686   0.00103939  -0.00551646 
         500      5.43793     0.994824   0.00104027  -0.00551645 
         500      5.47844      0.99495   0.00104113  -0.00551644 
         500       5.5191     0.995066   0.00104196  -0.00551644 
         500       5.5599     0.995171   0.00104276  -0.00551644 
         500      5.60086     0.995267   0.00104354  -0.00551644 
         500      5.64197     0.995355   0.00104427  -0.00551644 
         500      5.68322     0.995434   0.00104496  -0.00551643 
         500      5.72463     0.995507   0.00104561  -0.00551642 
         500      5.76619     0.995572   0.00104621  -0.00551641 
         500       5.8079     0.995632   0.00104679   -0.0055164 
         500      5.84976     0.995686   0.00104737  -0.00551639 
         500      5.89177     0.995737     0.001048  -0.00551639 
         500      5.93393     0.995781   0.00104862  -0.00551638 
         500      5.97623     0.995819   0.00104917  -0.00551635 
         500      6.01869     0.995855   0.00104972  -0.00551632 
         500       6.0613     0.995887   0.00105029  -0.00551628 
         500      6.10406     0.995916   0.00105085  -0.00551625 
         500      6.14698     0.995943    0.0010514  -0.00551621 
         500      6.19004     0.995966   0.00105195  -0.00551619 
         500      6.23325     0.995986    0.0010525  -0.00551616 
         500      6.27661     0.996005   0.00105303  -0.00551614 
         500      6.32012     0.996021   0.00105356  -0.00551613 
         500      6.36378     0.996035   0.00105408  -0.00551611 
         500      6.40759     0.996048   0.00105459   -0.0055161 
         500      6.45156      0.99606    0.0010551   -0.0055161 
         500      6.49567      0.99607    0.0010556  -0.00551609 
         500      6.53993     0.996079   0.00105609  -0.00551609 
         500      6.58435     0.996087   0.00105657  -0.00551609 
         500      6.62891     0.996095   0.00105705  -0.00551609 
         500      6.67363     0.996102   0.00105752  -0.00551609 
         500      6.71849     0.996108   0.00105798  -0.00551609 
         500      6.76351     0.996113   0.00105843  -0.00551609 
         500      6.80867     0.996118   0.00105888  -0.00551609 
         500      6.85399     0.996122   0.00105932   -0.0055161 
         500      6.89945     0.996125   0.00105976   -0.0055161 
         500      6.94507     0.996128    0.0010602   -0.0055161 
         500      6.99083     0.996131   0.00106064   -0.0055161 
         500      7.03675     0.996133   0.00106109   -0.0055161 
         500      7.08282     0.996134   0.00106154   -0.0055161 
         500      7.12904     0.996136     0.001062  -0.00551609 
         500       7.1754     0.996138   0.00106247  -0.00551609 
         500      7.22192     0.996139   0.00106295  -0.00551608 
         500      7.26859     0.996141   0.00106343  -0.00551606 
         500      7.31541     0.996142   0.00106392  -0.00551604 
         500      7.36238     0.996144   0.00106442  -0.00551601 
         500       7.4095     0.996146    0.0010649  -0.00551597 
         500      7.45677     0.996148   0.00106538  -0.00551593 
         500      7.50418      0.99615   0.00106584  -0.00551588 
         500      7.55175     0.996151   0.00106627  -0.00551582 
         500      7.59948     0.996152   0.00106671  -0.00551579 
         500      7.64735     0.996152    0.0010672  -0.00551577 
         500      7.69537     0.996152   0.00106768  -0.00551577 
         500      7.74354     0.996152   0.00106817  -0.00551577 
         500      7.79186     0.996151   0.00106864  -0.00551578 
         500      7.84033     0.996151    0.0010691  -0.00551582 
         500      7.88895     0.996151   0.00106957  -0.00551587 
         500      7.93773     0.996151   0.00107006  -0.00551594 
         500      7.98665      0.99615   0.00107063  -0.00551604 
         500      8.03572     0.996148   0.00107135  -0.00551617 
         500      8.08494     0.996148   0.00107211  -0.00551617 
         500      8.13432     0.996151   0.00107265  -0.00551612 
         500      8.18384     0.996154   0.00107306  -0.00551621 
         500      8.23352     0.996155   0.00107331  -0.00551649 
         500      8.28334     0.996157   0.00107345  -0.00551688 
         500      8.33332     0.996155    0.0010742  -0.00551634 
         500      8.38344     0.996154   0.00107488  -0.00551596 
         500      8.43372     0.996155   0.00107555  -0.00551572 
         500      8.48414     0.996156   0.00107622  -0.00551557 
         500      8.53472     0.996158    0.0010769  -0.00551549 
         500      8.58544     0.996159   0.00107757  -0.00551547 
         500      8.63632     0.996161   0.00107822  -0.00551548 
         500      8.68735     0.996162   0.00107885  -0.00551551 
         500      8.73852     0.996163   0.00107943  -0.00551555 
         500      8.78985     0.996164   0.00107996  -0.00551559 
         500      8.84133     0.996164   0.00108043  -0.00551563 
         500      8.89296     0.996164   0.00108085  -0.00551566 
         500      8.94474     0.996164   0.00108124  -0.00551568 
         500      8.99667     0.996164   0.00108159  -0.00551568 
         500      9.04875     0.996164   0.00108193  -0.00551567 
         500      9.10097     0.996164   0.00108227  -0.00551565 
         500      9.15335     0.996163   0.00108263  -0.00551562 
         500      9.20588     0.996163   0.00108303  -0.00551558 
         500      9.25856     0.996164   0.00108348  -0.00551553 
         500      9.31139     0.996164     0.001084  -0.00551547 
         500      9.36438     0.996164   0.00108457  -0.00551541 
         500      9.41751     0.996165   0.00108521  -0.00551535 
         500      9.47079     0.996165   0.00108591  -0.00551529 
         500      9.52422     0.996166   0.00108665  -0.00551523 
         500       9.5778     0.996166   0.00108742  -0.00551517 
         500      9.63153     0.996167   0.00108821  -0.00551512 
         500      9.68542     0.996168   0.00108898  -0.00551507 
         500      9.73945     0.996168   0.00108971  -0.00551503 
         500      9.79363     0.996169   0.00109039  -0.00551499 
         500      9.84797     0.996169     0.001091  -0.00551497 
         500      9.90245      0.99617   0.00109153  -0.00551494 
         500      9.95708      0.99617   0.00109199  -0.00551493 
         500      10.0119      0.99617   0.00109237  -0.00551492 
         500      10.0668      0.99617    0.0010927  -0.00551491 
         500      10.1219      0.99617   0.00109301  -0.00551491 
         500      10.1771      0.99617   0.00109334  -0.00551491 
         500      10.2325      0.99617   0.00109373  -0.00551491 
         500       10.288      0.99617   0.00109423  -0.00551492 
         500      10.3437      0.99617   0.00109488  -0.00551492 
         500      10.3996     0.996171   0.00109568  -0.00551492 
         500      10.4556     0.996171   0.00109661  -0.00551491 
         500      10.5117     0.996172   0.00109759  -0.00551489 
         500       10.568     0.996173   0.00109845  -0.00551486 
         500      10.6244     0.996175   0.00109889  -0.00551482 
         500       10.681     0.996176   0.00109847  -0.00551475 
         500      10.7377     0.996179   0.00109839  -0.00551467 
         500      10.7946     0.996183   0.00110032  -0.00551461 
         500      10.8517     0.996184   0.00110126  -0.00551455 
         500      10.9089     0.996183   0.00110168  -0.00551448 
         500      10.9662     0.996181   0.00110191   -0.0055144 
         500      11.0237     0.996179   0.00110214  -0.00551433 
         500      11.0813     0.996178   0.00110248  -0.00551425 
         500      11.1391     0.996178   0.00110297  -0.00551417 
         500      11.1971     0.996179    0.0011036  -0.00551409 
         500      11.2552      0.99618   0.00110434  -0.00551402 
         500      11.3134     0.996181   0.00110515  -0.00551394 
         500      11.3718     0.996183   0.00110599  -0.00551387 
         500      11.4303     0.996184    0.0011068  -0.00551381 
         500       11.489     0.996185   0.00110757  -0.00551374 
         500      11.5479     0.996186   0.00110826  -0.00551368 
         500      11.6069     0.996186   0.00110887  -0.00551362 
         500       11.666     0.996186   0.00110941  -0.00551356 
         500      11.7253     0.996185   0.00110989  -0.00551351 
         500      11.7847     0.996183   0.00111032  -0.00551345 
         500      11.8443     0.996182   0.00111075  -0.00551339 
         500      11.9041      0.99618   0.00111118  -0.00551333 
         500       11.964     0.996179   0.00111165  -0.00551327 
         500       12.024     0.996178   0.00111218  -0.00551321 
         500      12.0842     0.996177   0.00111278  -0.00551315 
         500      12.1446     0.996177   0.00111346  -0.00551308 
         500       12.205     0.996178    0.0011142  -0.00551302 
         500      12.2657      0.99618   0.00111501  -0.00551296 
         500      12.3265     0.996182   0.00111585  -0.00551289 
         500      12.3874     0.996184    0.0011167  -0.00551283 
         500      12.4485     0.996187   0.00111753  -0.00551277 
         500      12.5098      0.99619   0.00111831  -0.00551271 
         500      12.5712     0.996193   0.00111902  -0.00551266 
         500      12.6327     0.996195   0.00111964  -0.00551262 
         500      12.6944     0.996196   0.00112015  -0.00551258 
         500      12.7563     0.996197   0.00112059  -0.00551255 
         500      12.8183     0.996196   0.00112095  -0.00551253 
         500      12.8804     0.996194    0.0011213  -0.00551251 
         500      12.9427     0.996192   0.00112167  -0.00551251 
         500      13.0052     0.996188   0.00112213  -0.00551252 
         500      13.0678     0.996185   0.00112272  -0.00551253 
         500      13.1305     0.996183   0.00112346  -0.00551256 
         500      13.1934     0.996183   0.00112432  -0.00551259 
         500      13.2565     0.996187   0.00112517  -0.00551262 
         500      13.3197     0.996198   0.00112578  -0.00551265 
         500       13.383     0.996194   0.00112668  -0.00551335 
         500      13.4465     0.996191   0.00112764   -0.0055139 
         500      13.5102     0.996188   0.00112857  -0.00551428 
         500       13.574     0.996182   0.00112944  -0.00551453 
         500      13.6379     0.996181   0.00113078  -0.00551452 
         500       13.702     0.996186   0.00113173  -0.00551442 
         500      13.7663     0.996192   0.00113226  -0.00551433 
         500      13.8307     0.996197    0.0011326  -0.00551423 
         500      13.8952     0.996201   0.00113289  -0.00551414 
         500        13.96     0.996203   0.00113324  -0.00551404 
         500      14.0248     0.996205   0.00113369  -0.00551395 
         500      14.0898     0.996205   0.00113425  -0.00551386 
         500       14.155     0.996204   0.00113494  -0.00551377 
         500      14.2203     0.996203   0.00113572  -0.00551368 
         500      14.2857     0.996201   0.00113656   -0.0055136 
         500      14.3513     0.996199   0.00113745  -0.00551351 
         500      14.4171     0.996197   0.00113835  -0.00551344 
         500       14.483     0.996196   0.00113923  -0.00551336 
         500      14.5491     0.996195   0.00114007  -0.00551329 
         500      14.6153     0.996195   0.00114086  -0.00551322 
         500      14.6816     0.996196    0.0011416  -0.00551315 
         500      14.7481     0.996197   0.00114228  -0.00551309 
         500      14.8148     0.996198    0.0011429  -0.00551302 
         500      14.8816       0.9962   0.00114349  -0.00551296 
         500      14.9486     0.996203   0.00114404   -0.0055129 
         500      15.0157     0.996205   0.00114458  -0.00551285 
         500      15.0829     0.996208   0.00114513  -0.00551279 
         500      15.1503      0.99621   0.00114569  -0.00551274 
         500      15.2179     0.996211   0.00114627  -0.00551268 
         500      15.2856     0.996212    0.0011469  -0.00551263 
         500      15.3535     0.996213   0.00114757  -0.00551258 