Variables = x, y, u, v, p

Zone, I=1000, F=POINT
         650            0            0            0  -0.00399624 
         650      7.5e-05  2.37361e-05  5.35955e-13  -0.00399624 
         650       0.0003  9.49447e-05  8.57618e-12  -0.00399624 
         650     0.000676  0.000213943  4.35463e-11  -0.00399624 
         650     0.001202  0.000380418  1.37679e-10  -0.00399624 
         650     0.001878   0.00059437  3.36084e-10  -0.00399624 
         650     0.002705   0.00085612  6.97248e-10  -0.00399624 
         650     0.003682   0.00116535  1.29186e-09  -0.00399624 
         650     0.004809   0.00152208   2.2037e-09  -0.00399624 
         650     0.006087   0.00192662  3.53055e-09  -0.00399624 
         650     0.007515   0.00237865  5.38129e-09  -0.00399624 
         650     0.009093    0.0028782  7.87834e-09  -0.00399624 
         650     0.010821   0.00342526   1.1157e-08  -0.00399623 
         650       0.0127   0.00402017  1.53677e-08  -0.00399623 
         650     0.014729    0.0046626  2.06699e-08  -0.00399623 
         650     0.016908   0.00535258  2.72374e-08  -0.00399623 
         650     0.019238   0.00609043  3.52606e-08  -0.00399623 
         650     0.021718   0.00687584  4.49362e-08  -0.00399623 
         650     0.024348   0.00770883  5.64769e-08  -0.00399623 
         650     0.027129   0.00858973  7.01129e-08  -0.00399623 
         650      0.03006   0.00951822  8.60782e-08  -0.00399623 
         650     0.033141    0.0104943  1.04624e-07  -0.00399623 
         650     0.036372    0.0115181  1.26014e-07  -0.00399623 
         650     0.039754    0.0125898  1.50532e-07  -0.00399623 
         650     0.043286    0.0137092  1.78461e-07  -0.00399623 
         650     0.046968    0.0148762  2.10104e-07  -0.00399623 
         650     0.050801    0.0160913  2.45785e-07  -0.00399623 
         650     0.054784     0.017354  2.85824e-07  -0.00399623 
         650     0.058917    0.0186646  3.30561e-07  -0.00399623 
         650     0.063201    0.0200231  3.80362e-07  -0.00399622 
         650     0.067635    0.0214295  4.35581e-07  -0.00399622 
         650     0.072219    0.0228836  4.96599e-07  -0.00399622 
         650     0.076953    0.0243856  5.63807e-07  -0.00399622 
         650     0.081838    0.0259357  6.37623e-07  -0.00399622 
         650     0.086873    0.0275337  7.18453e-07  -0.00399622 
         650     0.092058    0.0291795  8.06725e-07  -0.00399622 
         650     0.097394    0.0308736  9.02899e-07  -0.00399622 
         650      0.10288    0.0326156  1.00742e-06  -0.00399622 
         650     0.108516    0.0344056  1.12074e-06  -0.00399622 
         650     0.114303    0.0362439  1.24338e-06  -0.00399622 
         650      0.12024    0.0381301   1.3758e-06  -0.00399621 
         650     0.126327    0.0400644  1.51851e-06  -0.00399621 
         650     0.132564    0.0420468  1.67203e-06  -0.00399621 
         650     0.138952    0.0440775  1.83692e-06  -0.00399621 
         650      0.14549    0.0461564  2.01368e-06  -0.00399621 
         650     0.152178    0.0482834  2.20289e-06  -0.00399621 
         650     0.159017    0.0504589  2.40514e-06  -0.00399621 
         650     0.166006    0.0526826  2.62098e-06  -0.00399621 
         650     0.173145    0.0549545    2.851e-06   -0.0039962 
         650     0.180435     0.057275  3.09585e-06   -0.0039962 
         650     0.187875    0.0596437  3.35611e-06   -0.0039962 
         650     0.195465    0.0620607  3.63241e-06   -0.0039962 
         650     0.203205    0.0645261  3.92539e-06   -0.0039962 
         650     0.211096    0.0670402  4.23575e-06   -0.0039962 
         650     0.219137    0.0696026  4.56412e-06   -0.0039962 
         650     0.227328    0.0722135  4.91117e-06  -0.00399619 
         650      0.23567    0.0748731  5.27765e-06  -0.00399619 
         650     0.244162    0.0775812  5.66421e-06  -0.00399619 
         650     0.252804    0.0803378  6.07157e-06  -0.00399619 
         650     0.261597    0.0831432   6.5005e-06  -0.00399619 
         650      0.27054    0.0859971   6.9517e-06  -0.00399619 
         650     0.279633    0.0888996  7.42593e-06  -0.00399618 
         650     0.288876    0.0918507  7.92395e-06  -0.00399618 
         650      0.29827    0.0948507  8.44658e-06  -0.00399618 
         650     0.307814    0.0978994  8.99456e-06  -0.00399618 
         650     0.317509     0.100997  9.56873e-06  -0.00399618 
         650     0.327353     0.104143  1.01698e-05  -0.00399617 
         650     0.337348     0.107338  1.07987e-05  -0.00399617 
         650     0.347493     0.110582  1.14562e-05  -0.00399617 
         650     0.357789     0.113874  1.21432e-05  -0.00399617 
         650     0.368235     0.117216  1.28606e-05  -0.00399617 
         650     0.378831     0.120606  1.36091e-05  -0.00399617 
         650     0.389577     0.124044  1.43897e-05  -0.00399616 
         650     0.400474     0.127532  1.52033e-05  -0.00399616 
         650     0.411521     0.131069  1.60507e-05  -0.00399616 
         650     0.422719     0.134654   1.6933e-05  -0.00399616 
         650     0.434066     0.138288  1.78508e-05  -0.00399615 
         650     0.445564     0.141971  1.88053e-05  -0.00399615 
         650     0.457213     0.145703  1.97974e-05  -0.00399615 
         650     0.469011     0.149484  2.08279e-05  -0.00399615 
         650      0.48096     0.153313  2.18979e-05  -0.00399615 
         650     0.493059     0.157191  2.30083e-05  -0.00399614 
         650     0.505309     0.161118  2.41601e-05  -0.00399614 
         650     0.517708     0.165093  2.53543e-05  -0.00399614 
         650     0.530258     0.169117  2.65918e-05  -0.00399614 
         650     0.542959      0.17319  2.78739e-05  -0.00399613 
         650     0.555809      0.17731  2.92011e-05  -0.00399613 
         650      0.56881      0.18148  3.05748e-05  -0.00399613 
         650     0.581962     0.185698   3.1996e-05  -0.00399613 
         650     0.595263     0.189964  3.34655e-05  -0.00399612 
         650     0.608715     0.194278  3.49846e-05  -0.00399612 
         650     0.622317     0.198641  3.65543e-05  -0.00399612 
         650      0.63607     0.203052  3.81757e-05  -0.00399612 
         650     0.649972      0.20751  3.98494e-05  -0.00399611 
         650     0.664026     0.212017  4.15769e-05  -0.00399611 
         650     0.678229     0.216571  4.33591e-05  -0.00399611 
         650     0.692583     0.221172   4.5197e-05  -0.00399611 
         650     0.707087     0.225822  4.70919e-05   -0.0039961 
         650     0.721741     0.230518  4.90446e-05   -0.0039961 
         650     0.736545     0.235261  5.10563e-05   -0.0039961 
         650       0.7515     0.240052  5.31282e-05   -0.0039961 
         650     0.766605      0.24489  5.52612e-05  -0.00399609 
         650     0.781861     0.249774  5.74566e-05  -0.00399609 
         650     0.797267     0.254704  5.97153e-05  -0.00399609 
         650     0.812823     0.259681  6.20382e-05  -0.00399608 
         650     0.828529     0.264703  6.44266e-05  -0.00399608 
         650     0.844386     0.269772  6.68816e-05  -0.00399608 
         650     0.860393     0.274886  6.94042e-05  -0.00399608 
         650      0.87655     0.280044  7.19953e-05  -0.00399607 
         650     0.892858     0.285248  7.46562e-05  -0.00399607 
         650     0.909315     0.290497  7.73877e-05  -0.00399607 
         650     0.925924      0.29579  8.01911e-05  -0.00399606 
         650     0.942682     0.301126  8.30671e-05  -0.00399606 
         650     0.959591     0.306507  8.60171e-05  -0.00399606 
         650      0.97665      0.31193  8.90417e-05  -0.00399605 
         650     0.993859     0.317396  9.21421e-05  -0.00399605 
         650      1.01122     0.322905  9.53194e-05  -0.00399605 
         650      1.02873     0.328456  9.85744e-05  -0.00399604 
         650      1.04639     0.334048  0.000101908  -0.00399604 
         650       1.0642     0.339682  0.000105321  -0.00399604 
         650      1.08216     0.345355  0.000108815  -0.00399603 
         650      1.10027     0.351069  0.000112391  -0.00399603 
         650      1.11853     0.356823  0.000116049  -0.00399603 
         650      1.13695     0.362615   0.00011979  -0.00399602 
         650      1.15551     0.368446  0.000123615  -0.00399602 
         650      1.17422     0.374315  0.000127525  -0.00399602 
         650      1.19308     0.380221  0.000131521  -0.00399601 
         650      1.21209     0.386163  0.000135604  -0.00399601 
         650      1.23126     0.392141  0.000139773  -0.00399601 
         650      1.25057     0.398155   0.00014403    -0.003996 
         650      1.27004     0.404203  0.000148375    -0.003996 
         650      1.28965     0.410284  0.000152808    -0.003996 
         650      1.30941     0.416398  0.000157329  -0.00399599 
         650      1.32933     0.422544  0.000161937  -0.00399599 
         650      1.34939     0.428722  0.000166654  -0.00399598 
         650      1.36961      0.43493  0.000171457  -0.00399598 
         650      1.38997     0.441166  0.000176346  -0.00399598 
         650      1.41049     0.447432  0.000181324  -0.00399597 
         650      1.43116     0.453725  0.000186393  -0.00399597 
         650      1.45197     0.460045  0.000191554  -0.00399596 
         650      1.47294      0.46639  0.000196808  -0.00399596 
         650      1.49406     0.472759  0.000202156  -0.00399596 
         650      1.51533     0.479152  0.000207598  -0.00399595 
         650      1.53674     0.485566  0.000213134  -0.00399595 
         650      1.55831     0.492002  0.000218764  -0.00399595 
         650      1.58003     0.498458  0.000224488  -0.00399594 
         650       1.6019     0.504932  0.000230305  -0.00399594 
         650      1.62392     0.511424  0.000236215  -0.00399593 
         650      1.64609     0.517932  0.000242218  -0.00399593 
         650      1.66841     0.524454  0.000248312  -0.00399592 
         650      1.69088      0.53099  0.000254498  -0.00399592 
         650       1.7135     0.537538  0.000260774  -0.00399591 
         650      1.73627     0.544096   0.00026714  -0.00399591 
         650      1.75919     0.550664  0.000273596   -0.0039959 
         650      1.78226     0.557239  0.000280139   -0.0039959 
         650      1.80548      0.56382  0.000286771  -0.00399589 
         650      1.82885     0.570406  0.000293489  -0.00399589 
         650      1.85237     0.576994  0.000300293  -0.00399589 
         650      1.87605     0.583584  0.000307183  -0.00399588 
         650      1.89987     0.590174  0.000314156  -0.00399588 
         650      1.92384     0.596762  0.000321212  -0.00399587 
         650      1.94796     0.603346  0.000328351  -0.00399587 
         650      1.97224     0.609925  0.000335569  -0.00399586 
         650      1.99666     0.616496  0.000342867  -0.00399586 
         650      2.02124     0.623059  0.000350242  -0.00399585 
         650      2.04596      0.62961  0.000357692  -0.00399585 
         650      2.07084     0.636149  0.000365217  -0.00399584 
         650      2.09586     0.642674  0.000372812  -0.00399584 
         650      2.12104     0.649182  0.000380477  -0.00399583 
         650      2.14636     0.655672  0.000388209  -0.00399583 
         650      2.17184     0.662142  0.000396006  -0.00399582 
         650      2.19746      0.66859  0.000403864  -0.00399582 
         650      2.22324     0.675013  0.000411782  -0.00399581 
         650      2.24917     0.681411  0.000419756  -0.00399581 
         650      2.27524     0.687781  0.000427784   -0.0039958 
         650      2.30147     0.694121  0.000435863  -0.00399579 
         650      2.32785     0.700428   0.00044399  -0.00399579 
         650      2.35438     0.706702  0.000452162  -0.00399578 
         650      2.38105      0.71294  0.000460376  -0.00399578 
         650      2.40788      0.71914  0.000468631  -0.00399577 
         650      2.43486     0.725299  0.000476922  -0.00399576 
         650      2.46199     0.731417  0.000485248  -0.00399576 
         650      2.48927     0.737491  0.000493605  -0.00399575 
         650       2.5167     0.743518   0.00050199  -0.00399575 
         650      2.54428     0.749498  0.000510399  -0.00399574 
         650      2.57201     0.755428   0.00051883  -0.00399574 
         650      2.59989     0.761306  0.000527276  -0.00399573 
         650      2.62792      0.76713  0.000535731  -0.00399573 
         650       2.6561     0.772899  0.000544189  -0.00399573 
         650      2.68444      0.77861  0.000552637  -0.00399572 
         650      2.71292     0.784261  0.000561063  -0.00399572 
         650      2.74155     0.789852  0.000569451  -0.00399571 
         650      2.77033     0.795379  0.000577955  -0.00399571 
         650      2.79927     0.800841  0.000586483  -0.00399571 
         650      2.82835     0.806237  0.000594966  -0.00399572 
         650      2.85758     0.811565  0.000603406  -0.00399572 
         650      2.88697     0.816823  0.000611803  -0.00399571 
         650       2.9165     0.822009  0.000620159  -0.00399571 
         650      2.94618     0.827123  0.000628473   -0.0039957 
         650      2.97602     0.832162  0.000636746  -0.00399569 
         650        3.006     0.837126  0.000644977  -0.00399568 
         650      3.03614     0.842013  0.000653163  -0.00399567 
         650      3.06642     0.846821  0.000661303  -0.00399566 
         650      3.09686     0.851549  0.000669393  -0.00399564 
         650      3.12744     0.856197  0.000677428  -0.00399563 
         650      3.15818     0.860763  0.000685405  -0.00399561 
         650      3.18907     0.865245  0.000693318   -0.0039956 
         650      3.22011     0.869645  0.000701163  -0.00399559 
         650      3.25129     0.873959  0.000708934  -0.00399558 
         650      3.28263     0.878188  0.000716626  -0.00399556 
         650      3.31412      0.88233  0.000724236  -0.00399555 
         650      3.34576     0.886386  0.000731758  -0.00399554 
         650      3.37754     0.890355   0.00073919  -0.00399554 
         650      3.40948     0.894235  0.000746529  -0.00399553 
         650      3.44157     0.898028  0.000753771  -0.00399552 
         650      3.47381     0.901731  0.000760915  -0.00399551 
         650       3.5062     0.905347  0.000767959   -0.0039955 
         650      3.53874     0.908873  0.000774901   -0.0039955 
         650      3.57143      0.91231  0.000781739  -0.00399549 
         650      3.60427     0.915659  0.000788471  -0.00399548 
         650      3.63726     0.918919  0.000795095  -0.00399547 
         650       3.6704      0.92209  0.000801607  -0.00399546 
         650       3.7037     0.925173  0.000808004  -0.00399545 
         650      3.73714     0.928168  0.000814282  -0.00399544 
         650      3.77073     0.931076  0.000820435  -0.00399543 
         650      3.80447     0.933898   0.00082646  -0.00399541 
         650      3.83837     0.936633  0.000832352   -0.0039954 
         650      3.87241     0.939283  0.000838112  -0.00399539 
         650       3.9066     0.941848  0.000843743  -0.00399538 
         650      3.94095     0.944329  0.000849255  -0.00399536 
         650      3.97544     0.946727  0.000854667  -0.00399535 
         650      4.01008     0.949044  0.000859983  -0.00399534 
         650      4.04488      0.95128  0.000865055  -0.00399533 
         650      4.07982     0.953437   0.00087004  -0.00399533 
         650      4.11492     0.955515   0.00087492  -0.00399532 
         650      4.15016     0.957516  0.000879682   -0.0039953 
         650      4.18556     0.959441  0.000884317  -0.00399529 
         650       4.2211     0.961292  0.000888822  -0.00399527 
         650       4.2568     0.963069  0.000893194  -0.00399526 
         650      4.29265     0.964776  0.000897433  -0.00399524 
         650      4.32864     0.966412  0.000901542  -0.00399523 
         650      4.36479      0.96798  0.000905521  -0.00399521 
         650      4.40109      0.96948  0.000909374   -0.0039952 
         650      4.43754     0.970916  0.000913103  -0.00399519 
         650      4.47413     0.972288   0.00091671  -0.00399519 
         650      4.51088     0.973598  0.000920198  -0.00399519 
         650      4.54778     0.974848   0.00092357  -0.00399518 
         650      4.58483     0.976039  0.000926832  -0.00399518 
         650      4.62203     0.977174  0.000929994  -0.00399517 
         650      4.65938     0.978253   0.00093307  -0.00399514 
         650      4.69688     0.979279  0.000936071  -0.00399509 
         650      4.73453     0.980253  0.000938861   -0.0039951 
         650      4.77233     0.981178  0.000941574   -0.0039951 
         650      4.81028     0.982054  0.000944197  -0.00399509 
         650      4.84838     0.982883  0.000946722  -0.00399507 
         650      4.88663     0.983668  0.000949146  -0.00399505 
         650      4.92504      0.98441  0.000951469  -0.00399503 
         650      4.96359     0.985111  0.000953694  -0.00399501 
         650      5.00229     0.985771  0.000955825    -0.003995 
         650      5.04114     0.986394  0.000957868  -0.00399499 
         650      5.08014      0.98698  0.000959831  -0.00399498 
         650       5.1193     0.987531  0.000961719  -0.00399497 
         650       5.1586     0.988049  0.000963537  -0.00399496 
         650      5.19806     0.988535  0.000965289  -0.00399496 
         650      5.23766      0.98899  0.000966977  -0.00399495 
         650      5.27741     0.989417  0.000968601  -0.00399494 
         650      5.31732     0.989816  0.000970158  -0.00399492 
         650      5.35737     0.990189  0.000971647  -0.00399491 
         650      5.39758     0.990538  0.000973063  -0.00399489 
         650      5.43793     0.990862  0.000974408  -0.00399487 
         650      5.47844     0.991165  0.000975684  -0.00399484 
         650       5.5191     0.991446  0.000976904  -0.00399482 
         650       5.5599     0.991707  0.000978093   -0.0039948 
         650      5.60086      0.99195  0.000979293  -0.00399477 
         650      5.64197     0.992175  0.000980523  -0.00399476 
         650      5.68322     0.992384  0.000981458  -0.00399475 
         650      5.72463     0.992577  0.000982465  -0.00399475 
         650      5.76619     0.992755  0.000983481  -0.00399474 
         650       5.8079      0.99292  0.000984469  -0.00399472 
         650      5.84976     0.993071  0.000985412  -0.00399471 
         650      5.89177     0.993211  0.000986303   -0.0039947 
         650      5.93393      0.99334  0.000987145  -0.00399469 
         650      5.97623     0.993458  0.000987945  -0.00399468 
         650      6.01869     0.993566  0.000988711  -0.00399467 
         650       6.0613     0.993665  0.000989452  -0.00399465 
         650      6.10406     0.993756  0.000990177  -0.00399464 
         650      6.14698     0.993839   0.00099089  -0.00399463 
         650      6.19004     0.993915  0.000991595  -0.00399461 
         650      6.23325     0.993985  0.000992294  -0.00399459 
         650      6.27661     0.994048  0.000992984  -0.00399457 
         650      6.32012     0.994105  0.000993663  -0.00399455 
         650      6.36378     0.994158  0.000994329  -0.00399453 
         650      6.40759     0.994205  0.000994978  -0.00399451 
         650      6.45156     0.994248  0.000995608  -0.00399449 
         650      6.49567     0.994287  0.000996217  -0.00399447 
         650      6.53993     0.994322  0.000996806  -0.00399445 
         650      6.58435     0.994354  0.000997377  -0.00399444 
         650      6.62891     0.994382  0.000997932  -0.00399442 
         650      6.67363     0.994408  0.000998477  -0.00399441 
         650      6.71849     0.994431  0.000999018  -0.00399439 
         650      6.76351     0.994452  0.000999561  -0.00399438 
         650      6.80867      0.99447   0.00100011  -0.00399437 
         650      6.85399     0.994487   0.00100067  -0.00399436 
         650      6.89945     0.994502   0.00100125  -0.00399435 
         650      6.94507     0.994516   0.00100183  -0.00399434 
         650      6.99083     0.994528   0.00100242  -0.00399432 
         650      7.03675     0.994539     0.001003  -0.00399431 
         650      7.08282     0.994549   0.00100357  -0.00399428 
         650      7.12904     0.994557    0.0010041  -0.00399426 
         650       7.1754     0.994565   0.00100458  -0.00399423 
         650      7.22192     0.994572   0.00100502   -0.0039942 
         650      7.26859     0.994578   0.00100541  -0.00399417 
         650      7.31541     0.994583   0.00100579  -0.00399415 
         650      7.36238     0.994588   0.00100626  -0.00399419 
         650       7.4095     0.994592   0.00100688  -0.00399428 
         650      7.45677     0.994596   0.00100766  -0.00399436 
         650      7.50418     0.994599   0.00100839  -0.00399432 
         650      7.55175     0.994604    0.0010089  -0.00399398 
         650      7.59948     0.994607    0.0010094  -0.00399385 
         650      7.64735     0.994608   0.00100974  -0.00399395 
         650      7.69537      0.99461   0.00101024  -0.00399402 
         650      7.74354     0.994612   0.00101081  -0.00399406 
         650      7.79186     0.994614   0.00101139  -0.00399408 
         650      7.84033     0.994615   0.00101197  -0.00399409 
         650      7.88895     0.994617   0.00101252  -0.00399411 
         650      7.93773     0.994618   0.00101306  -0.00399412 
         650      7.98665     0.994619   0.00101357  -0.00399413 
         650      8.03572      0.99462   0.00101408  -0.00399414 
         650      8.08494     0.994621   0.00101459  -0.00399415 
         650      8.13432     0.994622    0.0010151  -0.00399416 
         650      8.18384     0.994623   0.00101562  -0.00399416 
         650      8.23352     0.994624   0.00101615  -0.00399416 
         650      8.28334     0.994625   0.00101669  -0.00399416 
         650      8.33332     0.994626   0.00101724  -0.00399415 
         650      8.38344     0.994626    0.0010178  -0.00399414 
         650      8.43372     0.994627   0.00101835  -0.00399412 
         650      8.48414     0.994628   0.00101891   -0.0039941 
         650      8.53472     0.994628   0.00101945  -0.00399408 
         650      8.58544     0.994629      0.00102  -0.00399406 
         650      8.63632     0.994629   0.00102053  -0.00399404 
         650      8.68735     0.994629   0.00102107  -0.00399402 
         650      8.73852      0.99463    0.0010216    -0.003994 
         650      8.78985      0.99463   0.00102214  -0.00399399 
         650      8.84133      0.99463    0.0010227  -0.00399398 
         650      8.89296     0.994631   0.00102327  -0.00399397 
         650      8.94474     0.994631   0.00102387  -0.00399397 
         650      8.99667     0.994632   0.00102448  -0.00399397 
         650      9.04875     0.994633   0.00102511  -0.00399397 
         650      9.10097     0.994634   0.00102575  -0.00399396 
         650      9.15335     0.994635   0.00102638  -0.00399395 
         650      9.20588     0.994635   0.00102699  -0.00399394 
         650      9.25856     0.994635   0.00102757  -0.00399391 
         650      9.31139     0.994635   0.00102811  -0.00399389 
         650      9.36438     0.994635   0.00102862  -0.00399385 
         650      9.41751     0.994634   0.00102911  -0.00399383 
         650      9.47079     0.994633   0.00102964  -0.00399381 
         650      9.52422     0.994634   0.00103033  -0.00399384 
         650       9.5778     0.994636   0.00103116  -0.00399389 
         650      9.63153     0.994636   0.00103152  -0.00399383 
         650      9.68542     0.994637     0.001032  -0.00399379 
         650      9.73945     0.994638   0.00103257  -0.00399377 
         650      9.79363     0.994639   0.00103317  -0.00399376 
         650      9.84797      0.99464   0.00103379  -0.00399376 
         650      9.90245     0.994642   0.00103441  -0.00399377 
         650      9.95708     0.994642   0.00103503  -0.00399378 
         650      10.0119     0.994643   0.00103563  -0.00399379 
         650      10.0668     0.994643   0.00103623   -0.0039938 
         650      10.1219     0.994643   0.00103681  -0.00399381 
         650      10.1771     0.994643   0.00103739  -0.00399381 
         650      10.2325     0.994643   0.00103797  -0.00399381 
         650       10.288     0.994642   0.00103856  -0.00399379 
         650      10.3437     0.994642   0.00103915  -0.00399377 
         650      10.3996     0.994642   0.00103976  -0.00399373 
         650      10.4556     0.994642   0.00104039  -0.00399368 
         650      10.5117     0.994643   0.00104103  -0.00399362 
         650       10.568     0.994643   0.00104168  -0.00399356 
         650      10.6244     0.994644   0.00104235  -0.00399348 
         650       10.681     0.994645   0.00104302  -0.00399341 
         650      10.7377     0.994646   0.00104369  -0.00399334 
         650      10.7946     0.994647   0.00104436  -0.00399329 
         650      10.8517     0.994649   0.00104501  -0.00399325 
         650      10.9089      0.99465   0.00104564  -0.00399324 
         650      10.9662     0.994651   0.00104624  -0.00399327 
         650      11.0237     0.994652   0.00104682  -0.00399336 
         650      11.0813     0.994653   0.00104736  -0.00399351 
         650      11.1391     0.994653   0.00104788  -0.00399373 
         650      11.1971     0.994653   0.00104857  -0.00399342 
         650      11.2552     0.994652    0.0010492  -0.00399323 
         650      11.3134      0.99465   0.00104978  -0.00399313 
         650      11.3718     0.994649   0.00105034  -0.00399308 
         650      11.4303     0.994648   0.00105091  -0.00399308 
         650       11.489     0.994647   0.00105151  -0.00399311 
         650      11.5479     0.994647   0.00105216  -0.00399315 
         650      11.6069     0.994648   0.00105285  -0.00399318 
         650       11.666     0.994649   0.00105358  -0.00399321 
         650      11.7253     0.994652   0.00105433  -0.00399323 
         650      11.7847     0.994655   0.00105508  -0.00399323 
         650      11.8443     0.994658    0.0010558  -0.00399321 
         650      11.9041      0.99466   0.00105644  -0.00399317 
         650       11.964     0.994661   0.00105701  -0.00399311 
         650       12.024     0.994661   0.00105751  -0.00399305 
         650      12.0842     0.994659   0.00105801    -0.003993 
         650      12.1446     0.994657   0.00105866  -0.00399298 
         650       12.205     0.994654   0.00105972    -0.003993 
         650      12.2657     0.994655   0.00106118  -0.00399309 
         650      12.3265     0.994654   0.00106088  -0.00399305 
         650      12.3874     0.994654    0.0010613  -0.00399309 
         650      12.4485     0.994656   0.00106205  -0.00399316 
         650      12.5098     0.994657   0.00106289  -0.00399324 
         650      12.5712     0.994659   0.00106368  -0.00399332 
         650      12.6327     0.994661   0.00106439  -0.00399337 
         650      12.6944     0.994662   0.00106501  -0.00399339 
         650      12.7563     0.994663   0.00106557  -0.00399339 
         650      12.8183     0.994664   0.00106612  -0.00399337 
         650      12.8804     0.994664   0.00106669  -0.00399333 
         650      12.9427     0.994664   0.00106733  -0.00399327 
         650      13.0052     0.994664   0.00106804   -0.0039932 
         650      13.0678     0.994664   0.00106883  -0.00399312 
         650      13.1305     0.994664   0.00106969  -0.00399305 
         650      13.1934     0.994663    0.0010706  -0.00399299 
         650      13.2565     0.994663   0.00107152  -0.00399293 
         650      13.3197     0.994663   0.00107243  -0.00399288 
         650       13.383     0.994663   0.00107328  -0.00399285 
         650      13.4465     0.994663   0.00107406  -0.00399282 
         650      13.5102     0.994664   0.00107474  -0.00399281 
         650       13.574     0.994664   0.00107532  -0.00399281 
         650      13.6379     0.994665    0.0010758  -0.00399281 
         650       13.702     0.994666   0.00107619  -0.00399282 
         650      13.7663     0.994667   0.00107653  -0.00399283 
         650      13.8307     0.994668   0.00107687  -0.00399283 
         650      13.8952      0.99467   0.00107724  -0.00399283 
         650        13.96     0.994671    0.0010777  -0.00399282 
         650      14.0248     0.994672   0.00107828  -0.00399281 
         650      14.0898     0.994673   0.00107902  -0.00399278 
         650       14.155     0.994673   0.00107993  -0.00399274 
         650      14.2203     0.994674     0.001081  -0.00399269 
         650      14.2857     0.994674   0.00108219  -0.00399263 
         650      14.3513     0.994673   0.00108344  -0.00399255 
         650      14.4171     0.994672   0.00108465  -0.00399245 
         650       14.483     0.994672   0.00108573  -0.00399232 
         650      14.5491     0.994671   0.00108655  -0.00399215 
         650      14.6153      0.99467    0.0010865  -0.00399217 
         650      14.6816     0.994671   0.00108622  -0.00399224 
         650      14.7481     0.994672   0.00108606  -0.00399231 
         650      14.8148     0.994674   0.00108642  -0.00399235 
         650      14.8816     0.994676   0.00108804  -0.00399236 
         650      14.9486      0.99468   0.00109208  -0.00399233 
         650      15.0157     0.994678   0.00109291  -0.00399198 
         650      15.0829     0.994669   0.00109129  -0.00399215 
         650      15.1503     0.994661   0.00109099  -0.00399329 
         650      15.2179     0.994668   0.00109167  -0.00399269 
         650      15.2856     0.994675   0.00109273  -0.00399195 
         650      15.3535     0.994679   0.00109386   -0.0039914 