Variables = x, y, u, v, p

Zone, I=1000, F=POINT
         -30            0  3.60992e-16 -1.75494e-28  -0.00931558 
         -30      7.5e-05  4.46995e-05  2.78361e-12  -0.00931558 
         -30       0.0003  0.000178798  4.45383e-11  -0.00931558 
         -30     0.000676  0.000402893  2.26146e-10  -0.00931558 
         -30     0.001202  0.000716388  7.15009e-10  -0.00931558 
         -30     0.001878   0.00111928  1.74543e-09  -0.00931558 
         -30     0.002705   0.00161218  3.62122e-09  -0.00931557 
         -30     0.003682   0.00219448  6.70964e-09  -0.00931557 
         -30     0.004809   0.00286619   1.1446e-08  -0.00931557 
         -30     0.006087   0.00362791  1.83386e-08  -0.00931557 
         -30     0.007515   0.00447903  2.79534e-08  -0.00931557 
         -30     0.009093   0.00541958   4.0927e-08  -0.00931557 
         -30     0.010821   0.00644954   5.7963e-08  -0.00931557 
         -30       0.0127   0.00756952  7.98445e-08  -0.00931556 
         -30     0.014729   0.00877893  1.07401e-07  -0.00931556 
         -30     0.016908    0.0100778  1.41537e-07  -0.00931556 
         -30     0.019238    0.0114666  1.83246e-07  -0.00931556 
         -30     0.021718     0.012945  2.33552e-07  -0.00931556 
         -30     0.024348    0.0145127  2.93563e-07  -0.00931555 
         -30     0.027129    0.0161705   3.6448e-07  -0.00931555 
         -30      0.03006    0.0179178  4.47526e-07  -0.00931555 
         -30     0.033141    0.0197545  5.44011e-07  -0.00931554 
         -30     0.036372    0.0216807  6.55312e-07  -0.00931554 
         -30     0.039754     0.023697  7.82915e-07  -0.00931554 
         -30     0.043286    0.0258028  9.28301e-07  -0.00931553 
         -30     0.046968     0.027998  1.09305e-06  -0.00931553 
         -30     0.050801    0.0302833  1.27886e-06  -0.00931553 
         -30     0.054784    0.0326582  1.48742e-06  -0.00931552 
         -30     0.058917    0.0351225   1.7205e-06  -0.00931552 
         -30     0.063201     0.037677  1.98002e-06  -0.00931551 
         -30     0.067635    0.0403209  2.26785e-06  -0.00931551 
         -30     0.072219    0.0430544  2.58598e-06  -0.00931551 
         -30     0.076953    0.0458774  2.93647e-06   -0.0093155 
         -30     0.081838    0.0487905  3.32153e-06   -0.0093155 
         -30     0.086873    0.0517932  3.74329e-06  -0.00931549 
         -30     0.092058    0.0548853    4.204e-06  -0.00931549 
         -30     0.097394    0.0580676   4.7061e-06  -0.00931548 
         -30      0.10288    0.0613394  5.25191e-06  -0.00931548 
         -30     0.108516    0.0647008  5.84389e-06  -0.00931547 
         -30     0.114303    0.0681522  6.48469e-06  -0.00931546 
         -30      0.12024    0.0716931  7.17682e-06  -0.00931546 
         -30     0.126327    0.0753236  7.92296e-06  -0.00931545 
         -30     0.132564    0.0790435  8.72585e-06  -0.00931545 
         -30     0.138952    0.0828534  9.58844e-06  -0.00931544 
         -30      0.14549    0.0867528  1.05135e-05  -0.00931543 
         -30     0.152178    0.0907416  1.15039e-05  -0.00931543 
         -30     0.159017    0.0948203  1.25629e-05  -0.00931542 
         -30     0.166006    0.0989884  1.36934e-05  -0.00931541 
         -30     0.173145     0.103246  1.48986e-05   -0.0093154 
         -30     0.180435     0.107593  1.61818e-05   -0.0093154 
         -30     0.187875     0.112029  1.75461e-05  -0.00931539 
         -30     0.195465     0.116555   1.8995e-05  -0.00931538 
         -30     0.203205      0.12117  2.05317e-05  -0.00931537 
         -30     0.211096     0.125874  2.21601e-05  -0.00931537 
         -30     0.219137     0.130667  2.38833e-05  -0.00931536 
         -30     0.227328     0.135549  2.57051e-05  -0.00931535 
         -30      0.23567      0.14052  2.76292e-05  -0.00931534 
         -30     0.244162      0.14558  2.96593e-05  -0.00931533 
         -30     0.252804     0.150728  3.17989e-05  -0.00931532 
         -30     0.261597     0.155965  3.40524e-05  -0.00931532 
         -30      0.27054      0.16129  3.64232e-05  -0.00931531 
         -30     0.279633     0.166703  3.89153e-05   -0.0093153 
         -30     0.288876     0.172204  4.15327e-05  -0.00931529 
         -30      0.29827     0.177793  4.42796e-05  -0.00931528 
         -30     0.307814     0.183469    4.716e-05  -0.00931527 
         -30     0.317509     0.189233  5.01782e-05  -0.00931526 
         -30     0.327353     0.195083  5.33378e-05  -0.00931525 
         -30     0.337348      0.20102  5.66435e-05  -0.00931524 
         -30     0.347493     0.207043  6.00994e-05  -0.00931523 
         -30     0.357789     0.213153  6.37099e-05  -0.00931522 
         -30     0.368235     0.219348  6.74791e-05   -0.0093152 
         -30     0.378831     0.225628  7.14112e-05  -0.00931519 
         -30     0.389577     0.231993  7.55107e-05  -0.00931518 
         -30     0.400474     0.238442  7.97821e-05  -0.00931517 
         -30     0.411521     0.244975  8.42295e-05  -0.00931516 
         -30     0.422719     0.251592  8.88576e-05  -0.00931515 
         -30     0.434066     0.258291  9.36699e-05  -0.00931513 
         -30     0.445564     0.265072  9.86717e-05  -0.00931512 
         -30     0.457213     0.271935  0.000103867  -0.00931511 
         -30     0.469011     0.278878   0.00010926   -0.0093151 
         -30      0.48096     0.285901  0.000114855  -0.00931508 
         -30     0.493059     0.293003  0.000120656  -0.00931507 
         -30     0.505309     0.300184  0.000126668  -0.00931506 
         -30     0.517708     0.307442  0.000132894  -0.00931504 
         -30     0.530258     0.314776   0.00013934  -0.00931503 
         -30     0.542959     0.322187  0.000146008  -0.00931501 
         -30     0.555809     0.329671  0.000152902    -0.009315 
         -30      0.56881     0.337228  0.000160028  -0.00931498 
         -30     0.581962     0.344859  0.000167388  -0.00931497 
         -30     0.595263     0.352559  0.000174986  -0.00931495 
         -30     0.608715     0.360329  0.000182825  -0.00931494 
         -30     0.622317     0.368167   0.00019091  -0.00931492 
         -30      0.63607     0.376073  0.000199244   -0.0093149 
         -30     0.649972     0.384042  0.000207828  -0.00931489 
         -30     0.664026     0.392076  0.000216668  -0.00931487 
         -30     0.678229     0.400171  0.000225765  -0.00931485 
         -30     0.692583     0.408327  0.000235123  -0.00931483 
         -30     0.707087      0.41654  0.000244743  -0.00931481 
         -30     0.721741      0.42481  0.000254628   -0.0093148 
         -30     0.736545     0.433134  0.000264781  -0.00931478 
         -30       0.7515     0.441509  0.000275203  -0.00931476 
         -30     0.766605     0.449935  0.000285895  -0.00931474 
         -30     0.781861     0.458409   0.00029686  -0.00931472 
         -30     0.797267     0.466927  0.000308098  -0.00931469 
         -30     0.812823     0.475488   0.00031961  -0.00931467 
         -30     0.828529     0.484089  0.000331397  -0.00931465 
         -30     0.844386     0.492727  0.000343459  -0.00931463 
         -30     0.860393       0.5014  0.000355796   -0.0093146 
         -30      0.87655     0.510104  0.000368407  -0.00931458 
         -30     0.892858     0.518837  0.000381292  -0.00931456 
         -30     0.909315     0.527595  0.000394449  -0.00931453 
         -30     0.925924     0.536377  0.000407879  -0.00931451 
         -30     0.942682     0.545176  0.000421578  -0.00931448 
         -30     0.959591     0.553992  0.000435544  -0.00931445 
         -30      0.97665     0.562819  0.000449774  -0.00931442 
         -30     0.993859     0.571655  0.000464265   -0.0093144 
         -30      1.01122     0.580496  0.000479015  -0.00931437 
         -30      1.02873     0.589338  0.000494018  -0.00931434 
         -30      1.04639     0.598177   0.00050927  -0.00931431 
         -30       1.0642     0.607009  0.000524767  -0.00931428 
         -30      1.08216      0.61583  0.000540502  -0.00931424 
         -30      1.10027     0.624636   0.00055647  -0.00931421 
         -30      1.11853     0.633423  0.000572664  -0.00931418 
         -30      1.13695     0.642186  0.000589077  -0.00931414 
         -30      1.15551     0.650921  0.000605702  -0.00931411 
         -30      1.17422     0.659623  0.000622529  -0.00931407 
         -30      1.19308     0.668289  0.000639552  -0.00931404 
         -30      1.21209     0.676913  0.000656761    -0.009314 
         -30      1.23126     0.685491  0.000674145  -0.00931396 
         -30      1.25057     0.694018  0.000691695  -0.00931392 
         -30      1.27004      0.70249  0.000709399  -0.00931388 
         -30      1.28965     0.710901  0.000727247  -0.00931384 
         -30      1.30941     0.719248  0.000745225  -0.00931379 
         -30      1.32933     0.727525  0.000763323  -0.00931375 
         -30      1.34939     0.735728  0.000781526   -0.0093137 
         -30      1.36961     0.743852  0.000799823  -0.00931366 
         -30      1.38997     0.751891  0.000818198  -0.00931361 
         -30      1.41049     0.759843  0.000836638  -0.00931356 
         -30      1.43116     0.767702  0.000855129  -0.00931351 
         -30      1.45197     0.775463  0.000873653  -0.00931346 
         -30      1.47294     0.783122  0.000892197  -0.00931341 
         -30      1.49406     0.790675  0.000910744  -0.00931336 
         -30      1.51533     0.798118  0.000929279   -0.0093133 
         -30      1.53674     0.805445  0.000947784  -0.00931325 
         -30      1.55831     0.812654  0.000966244  -0.00931319 
         -30      1.58003      0.81974  0.000984642  -0.00931313 
         -30       1.6019     0.826699   0.00100296  -0.00931308 
         -30      1.62392     0.833529   0.00102118  -0.00931302 
         -30      1.64609     0.840225   0.00103929  -0.00931295 
         -30      1.66841     0.846783   0.00105727  -0.00931289 
         -30      1.69088     0.853202   0.00107511  -0.00931283 
         -30       1.7135     0.859478   0.00109278  -0.00931276 
         -30      1.73627     0.865609   0.00111027   -0.0093127 
         -30      1.75919     0.871592   0.00112756  -0.00931263 
         -30      1.78226     0.877424   0.00114465  -0.00931256 
         -30      1.80548     0.883104    0.0011615  -0.00931249 
         -30      1.82885     0.888631   0.00117811  -0.00931242 
         -30      1.85237     0.894002   0.00119447  -0.00931234 
         -30      1.87605     0.899217   0.00121055  -0.00931227 
         -30      1.89987     0.904274   0.00122635   -0.0093122 
         -30      1.92384     0.909173   0.00124184  -0.00931212 
         -30      1.94796     0.913914   0.00125703  -0.00931204 
         -30      1.97224     0.918495   0.00127189  -0.00931196 
         -30      1.99666     0.922919   0.00128642  -0.00931188 
         -30      2.02124     0.927184    0.0013006   -0.0093118 
         -30      2.04596     0.931292   0.00131443  -0.00931172 
         -30      2.07084     0.935243    0.0013279  -0.00931163 
         -30      2.09586     0.939039   0.00134099  -0.00931155 
         -30      2.12104     0.942681   0.00135372  -0.00931146 
         -30      2.14636     0.946172   0.00136605  -0.00931137 
         -30      2.17184     0.949512   0.00137801  -0.00931129 
         -30      2.19746     0.952704   0.00138957   -0.0093112 
         -30      2.22324     0.955751   0.00140074  -0.00931111 
         -30      2.24917     0.958655   0.00141151  -0.00931101 
         -30      2.27524     0.961419   0.00142189  -0.00931092 
         -30      2.30147     0.964046   0.00143188  -0.00931083 
         -30      2.32785     0.966539   0.00144147  -0.00931073 
         -30      2.35438     0.968902   0.00145066  -0.00931064 
         -30      2.38105     0.971137   0.00145947  -0.00931054 
         -30      2.40788      0.97325   0.00146789  -0.00931044 
         -30      2.43486     0.975243   0.00147593  -0.00931034 
         -30      2.46199     0.977121    0.0014836  -0.00931024 
         -30      2.48927     0.978887    0.0014909  -0.00931014 
         -30       2.5167     0.980545   0.00149783  -0.00931004 
         -30      2.54428       0.9821   0.00150441  -0.00930994 
         -30      2.57201     0.983555   0.00151064  -0.00930984 
         -30      2.59989     0.984915   0.00151653  -0.00930973 
         -30      2.62792     0.986184   0.00152209  -0.00930963 
         -30       2.6561     0.987365   0.00152734  -0.00930952 
         -30      2.68444     0.988463   0.00153228  -0.00930942 
         -30      2.71292     0.989483   0.00153692  -0.00930931 
         -30      2.74155     0.990428   0.00154129   -0.0093092 
         -30      2.77033     0.991301   0.00154537  -0.00930909 
         -30      2.79927     0.992108   0.00154918  -0.00930898 
         -30      2.82835     0.992851   0.00155274  -0.00930887 
         -30      2.85758     0.993535   0.00155607  -0.00930876 
         -30      2.88697     0.994162   0.00155916  -0.00930864 
         -30       2.9165     0.994738   0.00156204  -0.00930853 
         -30      2.94618     0.995264    0.0015647  -0.00930841 
         -30      2.97602     0.995744   0.00156718   -0.0093083 
         -30        3.006     0.996182   0.00156946  -0.00930818 
         -30      3.03614      0.99658   0.00157157  -0.00930806 
         -30      3.06642     0.996941   0.00157352  -0.00930795 
         -30      3.09686     0.997268   0.00157531  -0.00930783 
         -30      3.12744     0.997563   0.00157696  -0.00930771 
         -30      3.15818      0.99783   0.00157847   -0.0093076 
         -30      3.18907      0.99807   0.00157986  -0.00930748 
         -30      3.22011     0.998286   0.00158114  -0.00930736 
         -30      3.25129     0.998479   0.00158231  -0.00930724 
         -30      3.28263     0.998652   0.00158338  -0.00930712 
         -30      3.31412     0.998806   0.00158436  -0.00930699 
         -30      3.34576     0.998944   0.00158525  -0.00930687 
         -30      3.37754     0.999066   0.00158607  -0.00930675 
         -30      3.40948     0.999174   0.00158682  -0.00930662 
         -30      3.44157      0.99927   0.00158751  -0.00930649 
         -30      3.47381     0.999354   0.00158814  -0.00930635 
         -30       3.5062     0.999429   0.00158872  -0.00930621 
         -30      3.53874     0.999494   0.00158926  -0.00930607 
         -30      3.57143     0.999552   0.00158975  -0.00930592 
         -30      3.60427     0.999602    0.0015902  -0.00930579 
         -30      3.63726     0.999646   0.00159061  -0.00930566 
         -30       3.6704     0.999684   0.00159099  -0.00930553 
         -30       3.7037     0.999717   0.00159135   -0.0093054 
         -30      3.73714     0.999746   0.00159168  -0.00930526 
         -30      3.77073     0.999771   0.00159199  -0.00930513 
         -30      3.80447     0.999792   0.00159228  -0.00930499 
         -30      3.83837     0.999811   0.00159255  -0.00930485 
         -30      3.87241     0.999827   0.00159281  -0.00930471 
         -30       3.9066     0.999841   0.00159304  -0.00930457 
         -30      3.94095     0.999852   0.00159326  -0.00930443 
         -30      3.97544     0.999863   0.00159347  -0.00930428 
         -30      4.01008     0.999871   0.00159368  -0.00930413 
         -30      4.04488     0.999878   0.00159392  -0.00930399 
         -30      4.07982     0.999885   0.00159412  -0.00930385 
         -30      4.11492      0.99989   0.00159428  -0.00930371 
         -30      4.15016     0.999894   0.00159447  -0.00930356 
         -30      4.18556     0.999898   0.00159466  -0.00930342 
         -30       4.2211     0.999901   0.00159485  -0.00930327 
         -30       4.2568     0.999904   0.00159503  -0.00930311 
         -30      4.29265     0.999906   0.00159521  -0.00930296 
         -30      4.32864     0.999908   0.00159538  -0.00930281 
         -30      4.36479     0.999909   0.00159556  -0.00930266 
         -30      4.40109     0.999911   0.00159574  -0.00930251 
         -30      4.43754     0.999912   0.00159592  -0.00930237 
         -30      4.47413     0.999913   0.00159611  -0.00930224 
         -30      4.51088     0.999915    0.0015963  -0.00930213 
         -30      4.54778     0.999916    0.0015965  -0.00930204 
         -30      4.58483     0.999916   0.00159674  -0.00930197 
         -30      4.62203     0.999916   0.00159695  -0.00930187 
         -30      4.65938     0.999917   0.00159716  -0.00930175 
         -30      4.69688     0.999917   0.00159735  -0.00930162 
         -30      4.73453     0.999918   0.00159753  -0.00930148 
         -30      4.77233     0.999918    0.0015977  -0.00930132 
         -30      4.81028     0.999919   0.00159788  -0.00930116 
         -30      4.84838     0.999919   0.00159804    -0.009301 
         -30      4.88663      0.99992   0.00159821  -0.00930083 
         -30      4.92504      0.99992   0.00159838  -0.00930066 
         -30      4.96359     0.999921   0.00159855  -0.00930049 
         -30      5.00229     0.999921   0.00159872  -0.00930032 
         -30      5.04114     0.999922   0.00159889  -0.00930015 
         -30      5.08014     0.999922   0.00159907  -0.00929998 
         -30       5.1193     0.999922   0.00159924  -0.00929981 
         -30       5.1586     0.999923   0.00159942  -0.00929965 
         -30      5.19806     0.999923    0.0015996  -0.00929949 
         -30      5.23766     0.999923   0.00159979  -0.00929933 
         -30      5.27741     0.999923   0.00159997  -0.00929916 
         -30      5.31732     0.999923   0.00160015    -0.009299 
         -30      5.35737     0.999923   0.00160034  -0.00929884 
         -30      5.39758     0.999924   0.00160053  -0.00929868 
         -30      5.43793     0.999924   0.00160072  -0.00929851 
         -30      5.47844     0.999924   0.00160091  -0.00929835 
         -30       5.5191     0.999924    0.0016011  -0.00929818 
         -30       5.5599     0.999925   0.00160128  -0.00929802 
         -30      5.60086     0.999925   0.00160145  -0.00929786 
         -30      5.64197     0.999926   0.00160161   -0.0092977 
         -30      5.68322     0.999926   0.00160182  -0.00929752 
         -30      5.72463     0.999926   0.00160203  -0.00929734 
         -30      5.76619     0.999927   0.00160223  -0.00929716 
         -30       5.8079     0.999927   0.00160241  -0.00929698 
         -30      5.84976     0.999927   0.00160259  -0.00929681 
         -30      5.89177     0.999927   0.00160276  -0.00929663 
         -30      5.93393     0.999928   0.00160293  -0.00929646 
         -30      5.97623     0.999928    0.0016031  -0.00929629 
         -30      6.01869     0.999928   0.00160327  -0.00929611 
         -30       6.0613     0.999929   0.00160344  -0.00929593 
         -30      6.10406     0.999929   0.00160362  -0.00929575 
         -30      6.14698     0.999929   0.00160381  -0.00929557 
         -30      6.19004     0.999929   0.00160401  -0.00929539 
         -30      6.23325      0.99993   0.00160421  -0.00929521 
         -30      6.27661      0.99993   0.00160441  -0.00929502 
         -30      6.32012      0.99993   0.00160462  -0.00929484 
         -30      6.36378     0.999931   0.00160482  -0.00929465 
         -30      6.40759     0.999931   0.00160502  -0.00929446 
         -30      6.45156     0.999931   0.00160522  -0.00929428 
         -30      6.49567     0.999931   0.00160541  -0.00929409 
         -30      6.53993     0.999932    0.0016056  -0.00929391 
         -30      6.58435     0.999932   0.00160578  -0.00929372 
         -30      6.62891     0.999932   0.00160595  -0.00929354 
         -30      6.67363     0.999932   0.00160612  -0.00929336 
         -30      6.71849     0.999932   0.00160629  -0.00929318 
         -30      6.76351     0.999933   0.00160646    -0.009293 
         -30      6.80867     0.999933   0.00160663  -0.00929282 
         -30      6.85399     0.999933   0.00160681  -0.00929264 
         -30      6.89945     0.999933   0.00160701  -0.00929246 
         -30      6.94507     0.999934   0.00160721  -0.00929228 
         -30      6.99083     0.999934   0.00160741   -0.0092921 
         -30      7.03675     0.999934   0.00160761  -0.00929191 
         -30      7.08282     0.999935   0.00160779  -0.00929172 
         -30      7.12904     0.999935   0.00160792  -0.00929152 
         -30       7.1754     0.999935   0.00160816  -0.00929133 
         -30      7.22192     0.999935    0.0016084  -0.00929115 
         -30      7.26859     0.999936   0.00160862  -0.00929096 
         -30      7.31541     0.999936   0.00160882  -0.00929076 
         -30      7.36238     0.999936   0.00160901  -0.00929057 
         -30       7.4095     0.999937   0.00160919  -0.00929038 
         -30      7.45677     0.999937   0.00160937  -0.00929018 
         -30      7.50418     0.999937   0.00160954  -0.00928999 
         -30      7.55175     0.999937    0.0016097  -0.00928981 
         -30      7.59948     0.999937   0.00160987  -0.00928962 
         -30      7.64735     0.999937   0.00161005  -0.00928944 
         -30      7.69537     0.999937   0.00161024  -0.00928925 
         -30      7.74354     0.999938   0.00161046  -0.00928905 
         -30      7.79186     0.999938   0.00161065  -0.00928885 
         -30      7.84033     0.999939   0.00161083  -0.00928866 
         -30      7.88895     0.999939   0.00161103  -0.00928846 
         -30      7.93773     0.999939   0.00161125  -0.00928826 
         -30      7.98665     0.999939   0.00161147  -0.00928806 
         -30      8.03572      0.99994   0.00161168  -0.00928786 
         -30      8.08494      0.99994   0.00161189  -0.00928765 
         -30      8.13432      0.99994    0.0016121  -0.00928745 
         -30      8.18384      0.99994   0.00161229  -0.00928725 
         -30      8.23352      0.99994   0.00161248  -0.00928704 
         -30      8.28334     0.999941   0.00161267  -0.00928684 
         -30      8.33332     0.999941   0.00161285  -0.00928663 
         -30      8.38344     0.999941   0.00161303  -0.00928643 
         -30      8.43372     0.999941   0.00161321  -0.00928622 
         -30      8.48414     0.999942    0.0016134  -0.00928602 
         -30      8.53472     0.999942   0.00161358  -0.00928581 
         -30      8.58544     0.999942   0.00161377  -0.00928561 
         -30      8.63632     0.999942   0.00161396  -0.00928541 
         -30      8.68735     0.999943   0.00161416  -0.00928521 
         -30      8.73852     0.999943   0.00161437  -0.00928498 
         -30      8.78985     0.999942    0.0016146  -0.00928475 
         -30      8.84133     0.999943   0.00161482  -0.00928452 
         -30      8.89296     0.999943   0.00161504   -0.0092843 
         -30      8.94474     0.999943   0.00161526  -0.00928408 
         -30      8.99667     0.999943   0.00161548  -0.00928387 
         -30      9.04875     0.999943    0.0016157  -0.00928366 
         -30      9.10097     0.999944   0.00161591  -0.00928345 
         -30      9.15335     0.999944   0.00161612  -0.00928324 
         -30      9.20588     0.999944   0.00161633  -0.00928304 
         -30      9.25856     0.999945   0.00161653  -0.00928283 
         -30      9.31139     0.999945   0.00161673  -0.00928262 
         -30      9.36438     0.999946   0.00161693  -0.00928242 
         -30      9.41751     0.999946   0.00161712  -0.00928221 
         -30      9.47079     0.999946   0.00161731    -0.009282 
         -30      9.52422     0.999946    0.0016175  -0.00928179 
         -30       9.5778     0.999947    0.0016177  -0.00928158 
         -30      9.63153     0.999947   0.00161789  -0.00928136 
         -30      9.68542     0.999947   0.00161808  -0.00928115 
         -30      9.73945     0.999947   0.00161828  -0.00928093 
         -30      9.79363     0.999947   0.00161847  -0.00928071 
         -30      9.84797     0.999947   0.00161867  -0.00928049 
         -30      9.90245     0.999947   0.00161888  -0.00928027 
         -30      9.95708     0.999947   0.00161909  -0.00928005 
         -30      10.0119     0.999947    0.0016193  -0.00927983 
         -30      10.0668     0.999947   0.00161952  -0.00927961 
         -30      10.1219     0.999947   0.00161973  -0.00927939 
         -30      10.1771     0.999947   0.00161995  -0.00927917 
         -30      10.2325     0.999948   0.00162017  -0.00927895 
         -30       10.288     0.999948   0.00162038  -0.00927873 
         -30      10.3437     0.999949   0.00162059   -0.0092785 
         -30      10.3996      0.99995    0.0016208  -0.00927828 
         -30      10.4556      0.99995     0.001621  -0.00927805 
         -30      10.5117      0.99995    0.0016212  -0.00927781 
         -30       10.568     0.999949   0.00162139  -0.00927757 
         -30      10.6244     0.999949   0.00162165  -0.00927735 
         -30       10.681     0.999949   0.00162187  -0.00927714 
         -30      10.7377     0.999949   0.00162206   -0.0092769 
         -30      10.7946     0.999949   0.00162223  -0.00927667 
         -30      10.8517      0.99995   0.00162241  -0.00927642 
         -30      10.9089      0.99995   0.00162261  -0.00927618 
         -30      10.9662      0.99995   0.00162283  -0.00927594 
         -30      11.0237     0.999951   0.00162307   -0.0092757 
         -30      11.0813     0.999951   0.00162331  -0.00927546 
         -30      11.1391     0.999951   0.00162356  -0.00927523 
         -30      11.1971     0.999952   0.00162381    -0.009275 
         -30      11.2552     0.999952   0.00162406  -0.00927478 
         -30      11.3134     0.999952   0.00162429  -0.00927455 
         -30      11.3718     0.999952    0.0016245  -0.00927433 
         -30      11.4303     0.999953    0.0016247  -0.00927411 
         -30       11.489     0.999953   0.00162489  -0.00927389 
         -30      11.5479     0.999953   0.00162506  -0.00927367 
         -30      11.6069     0.999953   0.00162522  -0.00927345 
         -30       11.666     0.999953   0.00162538  -0.00927322 
         -30      11.7253     0.999953   0.00162553  -0.00927299 
         -30      11.7847     0.999954   0.00162569  -0.00927276 
         -30      11.8443     0.999954   0.00162586  -0.00927253 
         -30      11.9041     0.999954   0.00162604  -0.00927229 
         -30       11.964     0.999954   0.00162623  -0.00927205 
         -30       12.024     0.999954   0.00162644  -0.00927181 
         -30      12.0842     0.999954   0.00162666  -0.00927156 
         -30      12.1446     0.999955    0.0016269  -0.00927131 
         -30       12.205     0.999955   0.00162715  -0.00927107 
         -30      12.2657     0.999955   0.00162741  -0.00927082 
         -30      12.3265     0.999955   0.00162768  -0.00927058 
         -30      12.3874     0.999955   0.00162794  -0.00927034 
         -30      12.4485     0.999956    0.0016282   -0.0092701 
         -30      12.5098     0.999956   0.00162846  -0.00926988 
         -30      12.5712     0.999956    0.0016287  -0.00926967 
         -30      12.6327     0.999957   0.00162892  -0.00926945 
         -30      12.6944     0.999957   0.00162912  -0.00926922 
         -30      12.7563     0.999957    0.0016293  -0.00926899 
         -30      12.8183     0.999957   0.00162946  -0.00926876 
         -30      12.8804     0.999957   0.00162961  -0.00926853 
         -30      12.9427     0.999957   0.00162975   -0.0092683 
         -30      13.0052     0.999957   0.00162988  -0.00926806 
         -30      13.0678     0.999957   0.00163002  -0.00926783 
         -30      13.1305     0.999957   0.00163017   -0.0092676 
         -30      13.1934     0.999957   0.00163034  -0.00926736 
         -30      13.2565     0.999958   0.00163054  -0.00926712 
         -30      13.3197     0.999958   0.00163078  -0.00926688 
         -30       13.383     0.999958   0.00163107  -0.00926664 
         -30      13.4465     0.999958   0.00163139  -0.00926639 
         -30      13.5102     0.999958   0.00163174  -0.00926613 
         -30       13.574     0.999958   0.00163208  -0.00926587 
         -30      13.6379     0.999959   0.00163236  -0.00926561 
         -30       13.702      0.99996   0.00163249  -0.00926533 
         -30      13.7663     0.999961   0.00163236  -0.00926505 
         -30      13.8307     0.999961   0.00163243   -0.0092648 
         -30      13.8952      0.99996   0.00163305   -0.0092646 
         -30        13.96      0.99996   0.00163345  -0.00926437 
         -30      14.0248      0.99996    0.0016337  -0.00926412 
         -30      14.0898      0.99996   0.00163386  -0.00926386 
         -30       14.155     0.999961   0.00163396   -0.0092636 
         -30      14.2203     0.999961   0.00163404  -0.00926333 
         -30      14.2857     0.999962   0.00163412  -0.00926306 
         -30      14.3513     0.999962   0.00163421  -0.00926279 
         -30      14.4171     0.999962   0.00163433  -0.00926252 
         -30       14.483     0.999961   0.00163448  -0.00926226 
         -30      14.5491     0.999961   0.00163466  -0.00926199 
         -30      14.6153     0.999961   0.00163487  -0.00926173 
         -30      14.6816     0.999961   0.00163512  -0.00926146 
         -30      14.7481     0.999961    0.0016354   -0.0092612 
         -30      14.8148     0.999961    0.0016357  -0.00926093 
         -30      14.8816     0.999961   0.00163602  -0.00926067 
         -30      14.9486     0.999961   0.00163636   -0.0092604 
         -30      15.0157     0.999961   0.00163672  -0.00926012 
         -30      15.0829     0.999961    0.0016371  -0.00925984 
         -30      15.1503     0.999962   0.00163749  -0.00925954 
         -30      15.2179     0.999962   0.00163769  -0.00925932 
         -30      15.2856     0.999962   0.00163777  -0.00925913 
         -30      15.3535     0.999963   0.00163787  -0.00925892 